
.Version 8.0.8 of ABINIT 
.(MPI version, prepared for a x86_64_linux_intel15.0 computer) 

.Copyright (C) 1998-2016 ABINIT group . 
 ABINIT comes with ABSOLUTELY NO WARRANTY.
 It is free software, and you are welcome to redistribute it
 under certain conditions (GNU General Public License,
 see ~abinit/COPYING or http://www.gnu.org/copyleft/gpl.txt).

 ABINIT is a project of the Universite Catholique de Louvain,
 Corning Inc. and other collaborators, see ~abinit/doc/developers/contributors.txt .
 Please read ~abinit/doc/users/acknowledgments.html for suggested
 acknowledgments of the ABINIT effort.
 For more information, see http://www.abinit.org .

.Starting date : Thu 23 Mar 2017.
- ( at 18h26 )
  
- input  file    -> abinit.in
- output file    -> abinit.out
- root for input  files -> abinit-i
- root for output files -> abinit-o
 
- inpspheads : Reading pseudopotential header in XML form from ../K.GGA_X_PBE_SOL+GGA_C_PBE_SOL-paw.xml
- inpspheads : Reading pseudopotential header in XML form from ../Co.GGA_X_PBE_SOL+GGA_C_PBE_SOL-paw.xml
- inpspheads : Reading pseudopotential header in XML form from ../F.GGA_X_PBE_SOL+GGA_C_PBE_SOL-paw.xml
 
 Symmetries : the unit cell is not primitive
================================================================================
 Values of the parameters that define the memory need of the present run
     intxc =       0    ionmov =       0      iscf =      17    lmnmax =      18
     lnmax =       6     mgfft =      72  mpssoang =       3    mqgrid =    4920
     natom =      20  nloc_mem =       2    nspden =       2   nspinor =       1
    nsppol =       1      nsym =      32    n1xccc =       1    ntypat =       3
    occopt =       7   xclevel =       2
-    mband =         128        mffmem =           1         mkmem =           1
       mpw =       11392          nfft =      180000          nkpt =           6
Pmy_natom=         4
 PAW method is used; the additional fine FFT grid is defined by:
   mgfftf=       100    nfftf =    518400
================================================================================
P This job should need less than                     292.999 Mbytes of memory.
  Rough estimation (10% accuracy) of disk space for files :
_ WF disk file :    133.502 Mbytes ; DEN or POT disk file :      3.957 Mbytes.
================================================================================
 
--------------------------------------------------------------------------------
------------- Echo of variables that govern the present computation ------------
--------------------------------------------------------------------------------
-
- outvars: echo of selected default values                                      
-   iomode0 =  0 , fftalg0 =312 , wfoptalg0 = 10
-
- outvars: echo of global parameters not present in the input file              
-  max_nthreads =    0
-
 -outvars: echo values of preprocessed input variables --------
            acell      1.0886698670E+01  1.0886698670E+01  1.5155835667E+01 Bohr
              amu      3.90983000E+01  5.89332000E+01  1.89984032E+01
           diemac      1.20000000E+01
         dmatpawu        0.52813    0.04764    0.15597    0.46629    0.07202
                         0.04764    0.05157    0.20760   -0.03404    0.04886
                         0.15597    0.20760    0.83830   -0.17385    0.19469
                         0.46629   -0.03404   -0.17385    0.53421   -0.00461
                         0.07202    0.04886    0.19469   -0.00461    0.04778
                         1.00000   -0.00000   -0.00000   -0.00000   -0.00000
                        -0.00000    1.00000    0.00000    0.00000   -0.00000
                        -0.00000    0.00000    1.00000   -0.00000    0.00000
                        -0.00000    0.00000   -0.00000    1.00000   -0.00000
                        -0.00000   -0.00000    0.00000   -0.00000    1.00000
                         1.00000   -0.00000    0.00000   -0.00000   -0.00000
                        -0.00000    1.00000    0.00000   -0.00000    0.00000
                         0.00000    0.00000    1.00000   -0.00000    0.00000
                        -0.00000   -0.00000   -0.00000    1.00000   -0.00000
                        -0.00000    0.00000    0.00000   -0.00000    1.00000
                         0.32888    0.05200   -0.07417    0.22117    0.40447
                         0.05200    0.29658    0.34737    0.28836   -0.04584
                        -0.07417    0.34737    0.46390    0.26567   -0.22793
                         0.22117    0.28836    0.26567    0.37140    0.17554
                         0.40447   -0.04584   -0.22793    0.17554    0.53924
             ecut      2.60000000E+01 Hartree
           ecutsm      5.00000000E-01 Hartree
-          fftalg         312
              ixc     -116133
              kpt      1.25000000E-01  1.25000000E-01  2.50000000E-01
                       3.75000000E-01  1.25000000E-01  2.50000000E-01
                      -3.75000000E-01  1.25000000E-01  2.50000000E-01
                      -1.25000000E-01  1.25000000E-01  2.50000000E-01
                       3.75000000E-01  3.75000000E-01  2.50000000E-01
                      -3.75000000E-01  3.75000000E-01  2.50000000E-01
         kptrlatt        4    0    0      0    4    0      0    0    2
          kptrlen      3.03116713E+01
            lpawu          -1       2      -1
P           mkmem           1
            natom          20
            nband         128
            ngfft          50      50      72
          ngfftdg          72      72     100
             nkpt           6
-           npkpt           8
           nspden           2
            nstep          50
             nsym          32
           ntypat           3
              occ      2.000000  2.000000  2.000000  2.000000  2.000000  2.000000
                       2.000000  2.000000  2.000000  2.000000  2.000000  2.000000
                       2.000000  2.000000  2.000000  2.000000  2.000000  2.000000
                       2.000000  2.000000  2.000000  2.000000  2.000000  2.000000
                       2.000000  2.000000  2.000000  2.000000  2.000000  2.000000
                       2.000000  2.000000  2.000000  2.000000  2.000000  2.000000
                       2.000000  2.000000  2.000000  2.000000  2.000000  2.000000
                       2.000000  2.000000  2.000000  2.000000  2.000000  2.000000
                       2.000000  2.000000  2.000000  2.000000  2.000000  2.000000
                       2.000000  2.000000  2.000000  2.000000  2.000000  2.000000
                       2.000000  2.000000  2.000000  2.000000  2.000000  2.000000
                       2.000000  2.000000  2.000000  2.000000  2.000000  2.000000
                       2.000000  2.000000  2.000000  2.000000  2.000000  2.000000
                       2.000000  2.000000  2.000000  2.000000  2.000000  2.000000
                       2.000000  2.000000  2.000000  2.000000  2.000000  2.000000
                       2.000000  2.000000  2.000000  2.000000  0.000000  0.000000
                       0.000000  0.000000  0.000000  0.000000  0.000000  0.000000
                       0.000000  0.000000  0.000000  0.000000  0.000000  0.000000
                       0.000000  0.000000  0.000000  0.000000  0.000000  0.000000
                       0.000000  0.000000  0.000000  0.000000  0.000000  0.000000
                       0.000000  0.000000  0.000000  0.000000  0.000000  0.000000
                       0.000000  0.000000
                       2.000000  2.000000  2.000000  2.000000  2.000000  2.000000
                       2.000000  2.000000  2.000000  2.000000  2.000000  2.000000
                       2.000000  2.000000  2.000000  2.000000  2.000000  2.000000
                       2.000000  2.000000  2.000000  2.000000  2.000000  2.000000
                       2.000000  2.000000  2.000000  2.000000  2.000000  2.000000
                       2.000000  2.000000  2.000000  2.000000  2.000000  2.000000
                       2.000000  2.000000  2.000000  2.000000  2.000000  2.000000
                       2.000000  2.000000  2.000000  2.000000  2.000000  2.000000
                       2.000000  2.000000  2.000000  2.000000  2.000000  2.000000
                       2.000000  2.000000  2.000000  2.000000  2.000000  2.000000
                       2.000000  2.000000  2.000000  2.000000  2.000000  2.000000
                       2.000000  2.000000  2.000000  2.000000  2.000000  2.000000
                       2.000000  2.000000  2.000000  2.000000  2.000000  2.000000
                       2.000000  2.000000  2.000000  2.000000  2.000000  2.000000
                       2.000000  2.000000  2.000000  2.000000  2.000000  2.000000
                       2.000000  2.000000  2.000000  2.000000  0.000000  0.000000
                       0.000000  0.000000  0.000000  0.000000  0.000000  0.000000
                       0.000000  0.000000  0.000000  0.000000  0.000000  0.000000
                       0.000000  0.000000  0.000000  0.000000  0.000000  0.000000
                       0.000000  0.000000  0.000000  0.000000  0.000000  0.000000
                       0.000000  0.000000  0.000000  0.000000  0.000000  0.000000
                       0.000000  0.000000
                       2.000000  2.000000  2.000000  2.000000  2.000000  2.000000
                       2.000000  2.000000  2.000000  2.000000  2.000000  2.000000
                       2.000000  2.000000  2.000000  2.000000  2.000000  2.000000
                       2.000000  2.000000  2.000000  2.000000  2.000000  2.000000
                       2.000000  2.000000  2.000000  2.000000  2.000000  2.000000
                       2.000000  2.000000  2.000000  2.000000  2.000000  2.000000
                       2.000000  2.000000  2.000000  2.000000  2.000000  2.000000
                       2.000000  2.000000  2.000000  2.000000  2.000000  2.000000
                       2.000000  2.000000  2.000000  2.000000  2.000000  2.000000
                       2.000000  2.000000  2.000000  2.000000  2.000000  2.000000
                       2.000000  2.000000  2.000000  2.000000  2.000000  2.000000
                       2.000000  2.000000  2.000000  2.000000  2.000000  2.000000
                       2.000000  2.000000  2.000000  2.000000  2.000000  2.000000
                       2.000000  2.000000  2.000000  2.000000  2.000000  2.000000
                       2.000000  2.000000  2.000000  2.000000  2.000000  2.000000
                       2.000000  2.000000  2.000000  2.000000  0.000000  0.000000
                       0.000000  0.000000  0.000000  0.000000  0.000000  0.000000
                       0.000000  0.000000  0.000000  0.000000  0.000000  0.000000
                       0.000000  0.000000  0.000000  0.000000  0.000000  0.000000
                       0.000000  0.000000  0.000000  0.000000  0.000000  0.000000
                       0.000000  0.000000  0.000000  0.000000  0.000000  0.000000
                       0.000000  0.000000
                       2.000000  2.000000  2.000000  2.000000  2.000000  2.000000
                       2.000000  2.000000  2.000000  2.000000  2.000000  2.000000
                       2.000000  2.000000  2.000000  2.000000  2.000000  2.000000
                       2.000000  2.000000  2.000000  2.000000  2.000000  2.000000
                       2.000000  2.000000  2.000000  2.000000  2.000000  2.000000
                       2.000000  2.000000  2.000000  2.000000  2.000000  2.000000
                       2.000000  2.000000  2.000000  2.000000  2.000000  2.000000
                       2.000000  2.000000  2.000000  2.000000  2.000000  2.000000
                       2.000000  2.000000  2.000000  2.000000  2.000000  2.000000
                       2.000000  2.000000  2.000000  2.000000  2.000000  2.000000
                       2.000000  2.000000  2.000000  2.000000  2.000000  2.000000
                       2.000000  2.000000  2.000000  2.000000  2.000000  2.000000
                       2.000000  2.000000  2.000000  2.000000  2.000000  2.000000
                       2.000000  2.000000  2.000000  2.000000  2.000000  2.000000
                       2.000000  2.000000  2.000000  2.000000  2.000000  2.000000
                       2.000000  2.000000  2.000000  2.000000  0.000000  0.000000
                       0.000000  0.000000  0.000000  0.000000  0.000000  0.000000
                       0.000000  0.000000  0.000000  0.000000  0.000000  0.000000
                       0.000000  0.000000  0.000000  0.000000  0.000000  0.000000
                       0.000000  0.000000  0.000000  0.000000  0.000000  0.000000
                       0.000000  0.000000  0.000000  0.000000  0.000000  0.000000
                       0.000000  0.000000
                       2.000000  2.000000  2.000000  2.000000  2.000000  2.000000
                       2.000000  2.000000  2.000000  2.000000  2.000000  2.000000
                       2.000000  2.000000  2.000000  2.000000  2.000000  2.000000
                       2.000000  2.000000  2.000000  2.000000  2.000000  2.000000
                       2.000000  2.000000  2.000000  2.000000  2.000000  2.000000
                       2.000000  2.000000  2.000000  2.000000  2.000000  2.000000
                       2.000000  2.000000  2.000000  2.000000  2.000000  2.000000
                       2.000000  2.000000  2.000000  2.000000  2.000000  2.000000
                       2.000000  2.000000  2.000000  2.000000  2.000000  2.000000
                       2.000000  2.000000  2.000000  2.000000  2.000000  2.000000
                       2.000000  2.000000  2.000000  2.000000  2.000000  2.000000
                       2.000000  2.000000  2.000000  2.000000  2.000000  2.000000
                       2.000000  2.000000  2.000000  2.000000  2.000000  2.000000
                       2.000000  2.000000  2.000000  2.000000  2.000000  2.000000
                       2.000000  2.000000  2.000000  2.000000  2.000000  2.000000
                       2.000000  2.000000  2.000000  2.000000  0.000000  0.000000
                       0.000000  0.000000  0.000000  0.000000  0.000000  0.000000
                       0.000000  0.000000  0.000000  0.000000  0.000000  0.000000
                       0.000000  0.000000  0.000000  0.000000  0.000000  0.000000
                       0.000000  0.000000  0.000000  0.000000  0.000000  0.000000
                       0.000000  0.000000  0.000000  0.000000  0.000000  0.000000
                       0.000000  0.000000
                       2.000000  2.000000  2.000000  2.000000  2.000000  2.000000
                       2.000000  2.000000  2.000000  2.000000  2.000000  2.000000
                       2.000000  2.000000  2.000000  2.000000  2.000000  2.000000
                       2.000000  2.000000  2.000000  2.000000  2.000000  2.000000
                       2.000000  2.000000  2.000000  2.000000  2.000000  2.000000
                       2.000000  2.000000  2.000000  2.000000  2.000000  2.000000
                       2.000000  2.000000  2.000000  2.000000  2.000000  2.000000
                       2.000000  2.000000  2.000000  2.000000  2.000000  2.000000
                       2.000000  2.000000  2.000000  2.000000  2.000000  2.000000
                       2.000000  2.000000  2.000000  2.000000  2.000000  2.000000
                       2.000000  2.000000  2.000000  2.000000  2.000000  2.000000
                       2.000000  2.000000  2.000000  2.000000  2.000000  2.000000
                       2.000000  2.000000  2.000000  2.000000  2.000000  2.000000
                       2.000000  2.000000  2.000000  2.000000  2.000000  2.000000
                       2.000000  2.000000  2.000000  2.000000  2.000000  2.000000
                       2.000000  2.000000  2.000000  2.000000  0.000000  0.000000
                       0.000000  0.000000  0.000000  0.000000  0.000000  0.000000
                       0.000000  0.000000  0.000000  0.000000  0.000000  0.000000
                       0.000000  0.000000  0.000000  0.000000  0.000000  0.000000
                       0.000000  0.000000  0.000000  0.000000  0.000000  0.000000
                       0.000000  0.000000  0.000000  0.000000  0.000000  0.000000
                       0.000000  0.000000
           occopt           7
        pawecutdg      5.20000000E+01 Hartree
           shiftk      5.00000000E-01  5.00000000E-01  5.00000000E-01
           spinat      0.0000000000E+00  0.0000000000E+00  0.0000000000E+00
                       0.0000000000E+00  0.0000000000E+00  0.0000000000E+00
                       0.0000000000E+00  0.0000000000E+00  0.0000000000E+00
                       0.0000000000E+00  0.0000000000E+00  0.0000000000E+00
                       0.0000000000E+00  0.0000000000E+00 -4.0000000000E+00
                       0.0000000000E+00  0.0000000000E+00  4.0000000000E+00
                       0.0000000000E+00  0.0000000000E+00  4.0000000000E+00
                       0.0000000000E+00  0.0000000000E+00 -4.0000000000E+00
                       0.0000000000E+00  0.0000000000E+00  0.0000000000E+00
                       0.0000000000E+00  0.0000000000E+00  0.0000000000E+00
                       0.0000000000E+00  0.0000000000E+00  0.0000000000E+00
                       0.0000000000E+00  0.0000000000E+00  0.0000000000E+00
                       0.0000000000E+00  0.0000000000E+00  0.0000000000E+00
                       0.0000000000E+00  0.0000000000E+00  0.0000000000E+00
                       0.0000000000E+00  0.0000000000E+00  0.0000000000E+00
                       0.0000000000E+00  0.0000000000E+00  0.0000000000E+00
                       0.0000000000E+00  0.0000000000E+00  0.0000000000E+00
                       0.0000000000E+00  0.0000000000E+00  0.0000000000E+00
                       0.0000000000E+00  0.0000000000E+00  0.0000000000E+00
                       0.0000000000E+00  0.0000000000E+00  0.0000000000E+00
           symafm        1    1    1    1   -1   -1   -1   -1    1    1
                         1    1   -1   -1   -1   -1    1    1    1    1
                        -1   -1   -1   -1    1    1    1    1   -1   -1
                        -1   -1
           symrel      1  0  0   0  1  0   0  0  1       1  0  0   0  1  0   0  0  1
                      -1  0  0   0 -1  0   0  0 -1      -1  0  0   0 -1  0   0  0 -1
                      -1  0  0   0  1  0   0  0 -1      -1  0  0   0  1  0   0  0 -1
                       1  0  0   0 -1  0   0  0  1       1  0  0   0 -1  0   0  0  1
                      -1  0  0   0 -1  0   0  0  1      -1  0  0   0 -1  0   0  0  1
                       1  0  0   0  1  0   0  0 -1       1  0  0   0  1  0   0  0 -1
                       1  0  0   0 -1  0   0  0 -1       1  0  0   0 -1  0   0  0 -1
                      -1  0  0   0  1  0   0  0  1      -1  0  0   0  1  0   0  0  1
                       0  1  0   1  0  0   0  0  1       0  1  0   1  0  0   0  0  1
                       0 -1  0  -1  0  0   0  0 -1       0 -1  0  -1  0  0   0  0 -1
                       0 -1  0   1  0  0   0  0 -1       0 -1  0   1  0  0   0  0 -1
                       0  1  0  -1  0  0   0  0  1       0  1  0  -1  0  0   0  0  1
                       0 -1  0  -1  0  0   0  0  1       0 -1  0  -1  0  0   0  0  1
                       0  1  0   1  0  0   0  0 -1       0  1  0   1  0  0   0  0 -1
                       0  1  0  -1  0  0   0  0 -1       0  1  0  -1  0  0   0  0 -1
                       0 -1  0   1  0  0   0  0  1       0 -1  0   1  0  0   0  0  1
            tnons      0.0000000  0.0000000  0.0000000     0.5000000  0.5000000  0.5000000
                      -0.0000000 -0.0000000  0.5000000     0.5000000  0.5000000  0.0000000
                       0.5000000  0.5000000  0.5000000    -0.0000000 -0.0000000  0.0000000
                       0.5000000  0.5000000  0.0000000     0.0000000 -0.0000000  0.5000000
                      -0.0000000 -0.0000000  0.0000000     0.5000000  0.5000000  0.5000000
                       0.0000000  0.0000000  0.5000000     0.5000000  0.5000000  0.0000000
                       0.5000000  0.5000000  0.5000000     0.0000000 -0.0000000  0.0000000
                       0.5000000  0.5000000  0.0000000    -0.0000000 -0.0000000  0.5000000
                       0.5000000  0.5000000  0.0000000     0.0000000  0.0000000  0.5000000
                       0.5000000  0.5000000  0.5000000     0.0000000 -0.0000000  0.0000000
                       0.0000000 -0.0000000  0.5000000     0.5000000  0.5000000  0.0000000
                       0.0000000  0.0000000  0.0000000     0.5000000  0.5000000  0.5000000
                       0.5000000  0.5000000  0.0000000     0.0000000 -0.0000000  0.5000000
                       0.5000000  0.5000000  0.5000000     0.0000000  0.0000000  0.0000000
                       0.0000000  0.0000000  0.5000000     0.5000000  0.5000000  0.0000000
                       0.0000000 -0.0000000  0.0000000     0.5000000  0.5000000  0.5000000
           tolvrs      1.00000000E-14
           tsmear      1.00000000E-03 Hartree
            typat      1  1  1  1  2  2  2  2  3  3  3  3  3  3  3  3  3  3  3  3
            upawu      0.00000000E+00  1.46997302E-01  0.00000000E+00 Hartree
        usedmatpu          25
          usepawu           1
           useylm           1
              wtk        0.12500    0.25000    0.25000    0.12500    0.12500    0.12500
           xangst      2.0339865700E-20 -1.9352939087E-20 -2.5194539416E-32
                       2.8804964065E+00  2.8804964065E+00  7.3973205348E-32
                       2.0339865700E-20 -1.9352939087E-20  4.0100614061E+00
                       2.8804964065E+00  2.8804964065E+00  4.0100614061E+00
                       2.8804964065E+00 -1.9352939087E-20  2.0050307030E+00
                       2.0339865700E-20  2.8804964065E+00  2.0050307030E+00
                       2.8804964065E+00 -1.9352939087E-20  6.0150921091E+00
                       2.0339865700E-20  2.8804964065E+00  6.0150921091E+00
                       2.8804964065E+00 -1.9352939087E-20  2.4389332966E-32
                       2.0339865700E-20  2.8804964065E+00  2.4389332966E-32
                       2.8804964065E+00 -1.9352939087E-20  4.0100614061E+00
                       2.0339865700E-20  2.8804964065E+00  4.0100614061E+00
                       1.4737775959E+00  1.4067188106E+00  2.0050307030E+00
                       4.3542740024E+00  1.4737775959E+00  2.0050307030E+00
                       4.2872152170E+00  4.3542740024E+00  2.0050307030E+00
                       1.4067188106E+00  4.2872152170E+00  2.0050307030E+00
                       1.4067188106E+00  1.4737775959E+00  6.0150921091E+00
                       4.2872152170E+00  1.4067188106E+00  6.0150921091E+00
                       4.3542740024E+00  4.2872152170E+00  6.0150921091E+00
                       1.4737775959E+00  4.3542740024E+00  6.0150921091E+00
            xcart      3.8436775753E-20 -3.6571754740E-20 -4.7610779540E-32
                       5.4433493350E+00  5.4433493350E+00  1.3978909928E-31
                       3.8436775753E-20 -3.6571754740E-20  7.5779178335E+00
                       5.4433493350E+00  5.4433493350E+00  7.5779178335E+00
                       5.4433493350E+00 -3.6571754740E-20  3.7889589167E+00
                       3.8436775753E-20  5.4433493350E+00  3.7889589167E+00
                       5.4433493350E+00 -3.6571754741E-20  1.1366876750E+01
                       3.8436775753E-20  5.4433493350E+00  1.1366876750E+01
                       5.4433493350E+00 -3.6571754740E-20  4.6089159869E-32
                       3.8436775753E-20  5.4433493350E+00  4.6089159869E-32
                       5.4433493350E+00 -3.6571754740E-20  7.5779178335E+00
                       3.8436775753E-20  5.4433493350E+00  7.5779178335E+00
                       2.7850360371E+00  2.6583132979E+00  3.7889589167E+00
                       8.2283853721E+00  2.7850360371E+00  3.7889589167E+00
                       8.1016626329E+00  8.2283853721E+00  3.7889589167E+00
                       2.6583132979E+00  8.1016626329E+00  3.7889589167E+00
                       2.6583132979E+00  2.7850360371E+00  1.1366876750E+01
                       8.1016626329E+00  2.6583132979E+00  1.1366876750E+01
                       8.2283853721E+00  8.1016626329E+00  1.1366876750E+01
                       2.7850360371E+00  8.2283853721E+00  1.1366876750E+01
             xred      3.5306181349E-21 -3.3593062368E-21 -3.1414156623E-33
                       5.0000000000E-01  5.0000000000E-01  9.2234504484E-33
                       3.5306181349E-21 -3.3593062368E-21  5.0000000000E-01
                       5.0000000000E-01  5.0000000000E-01  5.0000000000E-01
                       5.0000000000E-01 -3.3593062368E-21  2.5000000000E-01
                       3.5306181349E-21  5.0000000000E-01  2.5000000000E-01
                       5.0000000000E-01 -3.3593062369E-21  7.5000000000E-01
                       3.5306181349E-21  5.0000000000E-01  7.5000000000E-01
                       5.0000000000E-01 -3.3593062368E-21  3.0410173930E-33
                       3.5306181349E-21  5.0000000000E-01  3.0410173930E-33
                       5.0000000000E-01 -3.3593062368E-21  5.0000000000E-01
                       3.5306181349E-21  5.0000000000E-01  5.0000000000E-01
                       2.5582007195E-01  2.4417992805E-01  2.5000000000E-01
                       7.5582007195E-01  2.5582007195E-01  2.5000000000E-01
                       7.4417992805E-01  7.5582007195E-01  2.5000000000E-01
                       2.4417992805E-01  7.4417992805E-01  2.5000000000E-01
                       2.4417992805E-01  2.5582007195E-01  7.5000000000E-01
                       7.4417992805E-01  2.4417992805E-01  7.5000000000E-01
                       7.5582007195E-01  7.4417992805E-01  7.5000000000E-01
                       2.5582007195E-01  7.5582007195E-01  7.5000000000E-01
            znucl       19.00000   27.00000    9.00000
 
================================================================================
 
 chkinp: Checking input parameters for consistency.
 
================================================================================
== DATASET  1 ==================================================================
-   nproc =    6
 
 Real(R)+Recip(G) space primitive vectors, cartesian coordinates (Bohr,Bohr^-1):
 R(1)= 10.8866987  0.0000000  0.0000000  G(1)=  0.0918552  0.0000000  0.0000000
 R(2)=  0.0000000 10.8866987  0.0000000  G(2)=  0.0000000  0.0918552  0.0000000
 R(3)=  0.0000000  0.0000000 15.1558357  G(3)=  0.0000000  0.0000000  0.0659812
 Unit cell volume ucvol=  1.7962728E+03 bohr^3
 Angles (23,13,12)=  9.00000000E+01  9.00000000E+01  9.00000000E+01 degrees
 
 Coarse grid specifications (used for wave-functions):
 
 getcut: wavevector=  0.0000  0.0000  0.0000  ngfft=  50  50  72
         ecut(hartree)=     26.000   => boxcut(ratio)=   2.00088
 
 Fine grid specifications (used for densities):
 
 getcut: wavevector=  0.0000  0.0000  0.0000  ngfft=  72  72 100
         ecut(hartree)=     52.000   => boxcut(ratio)=   2.03261
 
--- Pseudopotential description ------------------------------------------------
- pspini: atom type   1  psp file is ../K.GGA_X_PBE_SOL+GGA_C_PBE_SOL-paw.xml
- pspatm: opening atomic psp file    ../K.GGA_X_PBE_SOL+GGA_C_PBE_SOL-paw.xml
- pspatm : Reading pseudopotential header in XML form from ../K.GGA_X_PBE_SOL+GGA_C_PBE_SOL-paw.xml
 Pseudopotential format is: paw10
 basis_size (lnmax)=  5 (lmn_size= 13), orbitals=   0   0   1   1   2
 Spheres core radius: rc_sph= 2.10865939
 5 radial meshes are used:
  - mesh 1: r(i)=AA*[exp(BB*(i-1))-1], size=1420 , AA= 0.32655E-03 BB= 0.62045E-02
  - mesh 2: r(i)=AA*[exp(BB*(i-1))-1], size=1415 , AA= 0.32655E-03 BB= 0.62045E-02
  - mesh 3: r(i)=AA*[exp(BB*(i-1))-1], size=1437 , AA= 0.32655E-03 BB= 0.62045E-02
  - mesh 4: r(i)=AA*[exp(BB*(i-1))-1], size=1665 , AA= 0.32655E-03 BB= 0.62045E-02
  - mesh 5: r(i)=AA*[exp(BB*(i-1))-1], size=1808 , AA= 0.32655E-03 BB= 0.62045E-02
 Shapefunction is SIN type: shapef(r)=[sin(pi*r/rshp)/(pi*r/rshp)]**2
 Radius for shape functions =  2.00653367
 mmax= 1420
 Radial grid used for partial waves is grid 1
 Radial grid used for projectors is grid 2
 Radial grid used for (t)core density is grid 3
 Radial grid used for Vloc is grid 4
 Radial grid used for pseudo valence density is grid 5
 Compensation charge density is not taken into account in XC energy/potential
 pspatm: atomic psp has been read  and splines computed
 
- pspini: atom type   2  psp file is ../Co.GGA_X_PBE_SOL+GGA_C_PBE_SOL-paw.xml
- pspatm: opening atomic psp file    ../Co.GGA_X_PBE_SOL+GGA_C_PBE_SOL-paw.xml
- pspatm : Reading pseudopotential header in XML form from ../Co.GGA_X_PBE_SOL+GGA_C_PBE_SOL-paw.xml
 Pseudopotential format is: paw10
 basis_size (lnmax)=  6 (lmn_size= 18), orbitals=   0   0   1   1   2   2
 Spheres core radius: rc_sph= 2.10903434
 4 radial meshes are used:
  - mesh 1: r(i)=AA*[exp(BB*(i-1))-1], size=1435 , AA= 0.23582E-03 BB= 0.63672E-02
  - mesh 2: r(i)=AA*[exp(BB*(i-1))-1], size=1430 , AA= 0.23582E-03 BB= 0.63672E-02
  - mesh 3: r(i)=AA*[exp(BB*(i-1))-1], size=1674 , AA= 0.23582E-03 BB= 0.63672E-02
  - mesh 4: r(i)=AA*[exp(BB*(i-1))-1], size=1763 , AA= 0.23582E-03 BB= 0.63672E-02
 Shapefunction is SIN type: shapef(r)=[sin(pi*r/rshp)/(pi*r/rshp)]**2
 Radius for shape functions =  1.60384542
 mmax= 1435
 Radial grid used for partial waves is grid 1
 Radial grid used for projectors is grid 2
 Radial grid used for (t)core density is grid 1
 Radial grid used for Vloc is grid 3
 Radial grid used for pseudo valence density is grid 4
 Compensation charge density is not taken into account in XC energy/potential
 pspatm: atomic psp has been read  and splines computed
 
- pspini: atom type   3  psp file is ../F.GGA_X_PBE_SOL+GGA_C_PBE_SOL-paw.xml
- pspatm: opening atomic psp file    ../F.GGA_X_PBE_SOL+GGA_C_PBE_SOL-paw.xml
- pspatm : Reading pseudopotential header in XML form from ../F.GGA_X_PBE_SOL+GGA_C_PBE_SOL-paw.xml
 Pseudopotential format is: paw10
 basis_size (lnmax)=  4 (lmn_size=  8), orbitals=   0   0   1   1
 Spheres core radius: rc_sph= 1.40288605
 4 radial meshes are used:
  - mesh 1: r(i)=AA*[exp(BB*(i-1))-1], size=1316 , AA= 0.65105E-03 BB= 0.58595E-02
  - mesh 2: r(i)=AA*[exp(BB*(i-1))-1], size=1311 , AA= 0.65105E-03 BB= 0.58595E-02
  - mesh 3: r(i)=AA*[exp(BB*(i-1))-1], size=1646 , AA= 0.65105E-03 BB= 0.58595E-02
  - mesh 4: r(i)=AA*[exp(BB*(i-1))-1], size=1667 , AA= 0.65105E-03 BB= 0.58595E-02
 Shapefunction is SIN type: shapef(r)=[sin(pi*r/rshp)/(pi*r/rshp)]**2
 Radius for shape functions =  1.20455331
 mmax= 1316
 Radial grid used for partial waves is grid 1
 Radial grid used for projectors is grid 2
 Radial grid used for (t)core density is grid 1
 Radial grid used for Vloc is grid 3
 Radial grid used for pseudo valence density is grid 4
 Compensation charge density is not taken into account in XC energy/potential
 pspatm: atomic psp has been read  and splines computed
 
   3.36810182E+04                                ecore*ucvol(ha*bohr**3)
--------------------------------------------------------------------------------
 
_setup2: Arith. and geom. avg. npw (full set) are   11370.250   11370.243
 
 
 ******************************************
 LDA+U Method used: FLL
 ******************************************
 
================================================================================
 
     iter   Etot(hartree)      deltaE(h)  residm     nres2
 ETOT  1  -976.66592963164    -9.767E+02 3.515E+00 4.260E+02
 ETOT  2  -992.55863902509    -1.589E+01 9.316E-02 6.922E+02
 ETOT  3  -992.86924205728    -3.106E-01 3.285E-01 1.328E+02
 ETOT  4  -992.09246882972     7.768E-01 2.506E-02 4.476E+01
 ETOT  5  -991.67116149350     4.213E-01 1.001E-02 1.847E+01
 ETOT  6  -991.19515905093     4.760E-01 9.575E-03 5.451E+00
 ETOT  7  -990.83882892706     3.563E-01 7.126E-03 1.936E+00
 ETOT  8  -990.87735628148    -3.853E-02 5.894E-03 4.868E-01
 ETOT  9  -990.92966840842    -5.231E-02 4.572E-03 4.076E-02
 ETOT 10  -990.93961576968    -9.947E-03 2.690E-03 7.564E-02
 ETOT 11  -990.91488749693     2.473E-02 1.655E-03 1.754E-02
 ETOT 12  -990.91734417949    -2.457E-03 1.112E-03 1.118E-02
 ETOT 13  -990.92034469548    -3.001E-03 1.062E-03 2.913E-03
 ETOT 14  -990.92062435628    -2.797E-04 7.048E-04 5.321E-03
 ETOT 15  -990.92009437035     5.300E-04 7.245E-04 7.827E-04
 ETOT 16  -990.91996780613     1.266E-04 5.060E-04 1.980E-04
 ETOT 17  -990.91981844563     1.494E-04 7.793E-04 8.546E-06
 ETOT 18  -990.91975406956     6.438E-05 4.289E-04 2.730E-06
 ETOT 19  -990.91962704369     1.270E-04 7.934E-04 7.032E-07
 ETOT 20  -990.91960287271     2.417E-05 4.135E-04 1.592E-07
 ETOT 21  -990.91960490539    -2.033E-06 7.597E-04 8.193E-08
 ETOT 22  -990.91959954522     5.360E-06 3.804E-04 8.569E-09
 ETOT 23  -990.91959681108     2.734E-06 6.869E-04 4.487E-09
 ETOT 24  -990.91959532088     1.490E-06 3.324E-04 1.977E-09
 ETOT 25  -990.91959365962     1.661E-06 5.904E-04 6.946E-10
 ETOT 26  -991.33085884588    -4.113E-01 1.790E-02 1.343E+01
 ETOT 27  -991.33243278797    -1.574E-03 1.258E-03 1.364E+01
 ETOT 28  -991.33242244636     1.034E-05 3.659E-04 1.365E+01
 ETOT 29  -991.33241633698     6.109E-06 2.667E-04 1.365E+01
 ETOT 30  -991.33241427134     2.066E-06 2.692E-04 1.365E+01
 ETOT 31  -991.33241361261     6.587E-07 1.933E-04 1.365E+01
 ETOT 32  -991.33241316916     4.435E-07 1.948E-04 1.365E+01
 ETOT 33  -991.33241265077     5.184E-07 1.383E-04 1.365E+01
 ETOT 34  -991.37686802532    -4.446E-02 2.464E-02 3.756E+00
 ETOT 35  -991.40617362534    -2.931E-02 1.105E-03 3.454E+00
 ETOT 36  -991.40296435455     3.209E-03 7.209E-04 1.687E+00
 ETOT 37  -991.40194953914     1.015E-03 2.879E-04 7.322E-01
 ETOT 38  -991.40381480657    -1.865E-03 1.363E-04 3.839E-01
 ETOT 39  -991.40435647898    -5.417E-04 7.950E-05 6.398E-02
 ETOT 40  -991.40521169220    -8.552E-04 7.139E-05 1.527E-02
 ETOT 41  -991.40551931686    -3.076E-04 4.279E-05 8.864E-04
 ETOT 42  -991.40563214122    -1.128E-04 4.584E-05 3.170E-04
 ETOT 43  -991.40565357153    -2.143E-05 2.948E-05 1.929E-05
 ETOT 44  -991.40567121870    -1.765E-05 3.205E-05 5.742E-06
 ETOT 45  -991.40568431479    -1.310E-05 2.080E-05 9.814E-07
 ETOT 46  -991.40569242027    -8.105E-06 2.259E-05 2.317E-07
 ETOT 47  -991.40569715764    -4.737E-06 1.469E-05 1.186E-07
 ETOT 48  -991.40570267778    -5.520E-06 1.595E-05 7.055E-09
 ETOT 49  -991.40570501861    -2.341E-06 1.169E-05 2.253E-09
 ETOT 50  -991.40570574055    -7.219E-07 1.126E-05 5.286E-10
 
 Cartesian components of stress tensor (hartree/bohr^3)
  sigma(1 1)=  8.72382874E-07  sigma(3 2)=  0.00000000E+00
  sigma(2 2)=  8.72382874E-07  sigma(3 1)=  0.00000000E+00
  sigma(3 3)=  2.99896859E-06  sigma(2 1)=  0.00000000E+00
 
 
 scprqt:  WARNING -
  nstep=   50 was not enough SCF cycles to converge;
  density residual=  5.286E-10 exceeds tolvrs=  1.000E-14
 
 Integrated electronic and magnetization densities in atomic spheres:
 ---------------------------------------------------------------------
 Note: Diff(up-dn) is a rough approximation of local magnetic moment
 Atom    Radius    up_density   dn_density  Total(up+dn)  Diff(up-dn)
    1   2.10866     3.576418     3.576418      7.152836     0.000000
    2   2.10866     3.576418     3.576418      7.152836     0.000000
    3   2.10866     3.576418     3.576418      7.152836     0.000000
    4   2.10866     3.576418     3.576418      7.152836     0.000000
    5   2.10903     6.257237     8.973750     15.230987    -2.716513
    6   2.10903     8.973750     6.257237     15.230987     2.716513
    7   2.10903     8.973750     6.257237     15.230987     2.716513
    8   2.10903     6.257237     8.973750     15.230987    -2.716513
    9   1.40289     2.828957     2.828957      5.657913    -0.000000
   10   1.40289     2.828957     2.828957      5.657913    -0.000000
   11   1.40289     2.828957     2.828957      5.657913    -0.000000
   12   1.40289     2.828957     2.828957      5.657913    -0.000000
   13   1.40289     2.820339     2.834489      5.654829    -0.014150
   14   1.40289     2.834489     2.820339      5.654829     0.014150
   15   1.40289     2.820339     2.834489      5.654829    -0.014150
   16   1.40289     2.834489     2.820339      5.654829     0.014150
   17   1.40289     2.820339     2.834489      5.654829    -0.014150
   18   1.40289     2.834489     2.820339      5.654829     0.014150
   19   1.40289     2.820339     2.834489      5.654829    -0.014150
   20   1.40289     2.834489     2.820339      5.654829     0.014150
 ---------------------------------------------------------------------
  Sum:             78.702787    78.702787    157.405573    -0.000000
 Total magnetization (from the atomic spheres):            -0.000000
 Total magnetization (exact up - dn):                       0.000000
 
 PAW TEST:
 ==== Compensation charge inside spheres ============
 The following values must be close to each other ...
 Compensation charge over spherical meshes =     56.305538239333330
 Compensation charge over fine fft grid    =     56.305468151219905
 
 ==== Results concerning PAW augmentation regions ====
 
 Total pseudopotential strength Dij (hartree):
 Atom #  1 - Spin component 1
   1.34587  -0.20451   0.00000   0.00000   0.00000   0.00000   0.00000   0.00000  -0.00000   0.00000   0.00002   0.00000 ...
  -0.20451  -0.45746   0.00000   0.00000   0.00000   0.00000   0.00000   0.00000  -0.00000   0.00000   0.00002   0.00000 ...
   0.00000   0.00000   0.03540   0.00000  -0.00000  -0.01457   0.00000  -0.00000   0.00000  -0.00000   0.00000   0.00000 ...
   0.00000   0.00000   0.00000   0.03542   0.00000   0.00000  -0.01456   0.00000   0.00000   0.00000   0.00000   0.00000 ...
   0.00000   0.00000  -0.00000   0.00000   0.03540  -0.00000   0.00000  -0.01457   0.00000   0.00000   0.00000   0.00000 ...
   0.00000   0.00000  -0.01457   0.00000  -0.00000  -0.01122   0.00000  -0.00000   0.00000  -0.00000   0.00000   0.00000 ...
   0.00000   0.00000   0.00000  -0.01456   0.00000   0.00000  -0.01122   0.00000   0.00000   0.00000   0.00000   0.00000 ...
   0.00000   0.00000  -0.00000   0.00000  -0.01457  -0.00000   0.00000  -0.01122   0.00000   0.00000   0.00000   0.00000 ...
  -0.00000  -0.00000   0.00000   0.00000   0.00000   0.00000   0.00000   0.00000  -0.07942   0.00000  -0.00000   0.00000 ...
   0.00000   0.00000  -0.00000   0.00000   0.00000  -0.00000   0.00000   0.00000   0.00000  -0.07939   0.00000  -0.00000 ...
   0.00002   0.00002   0.00000   0.00000   0.00000   0.00000   0.00000   0.00000  -0.00000   0.00000  -0.07940   0.00000 ...
   0.00000   0.00000   0.00000   0.00000   0.00000   0.00000   0.00000   0.00000   0.00000  -0.00000   0.00000  -0.07939 ...
   ...  only 12  components have been written...
 Atom #  1 - Spin component 2
   1.34587  -0.20451   0.00000   0.00000   0.00000   0.00000   0.00000   0.00000   0.00000   0.00000   0.00002   0.00000 ...
  -0.20451  -0.45746   0.00000   0.00000   0.00000   0.00000   0.00000   0.00000   0.00000   0.00000   0.00002   0.00000 ...
   0.00000   0.00000   0.03540   0.00000   0.00000  -0.01457   0.00000   0.00000   0.00000   0.00000   0.00000   0.00000 ...
   0.00000   0.00000   0.00000   0.03542   0.00000   0.00000  -0.01456   0.00000   0.00000   0.00000   0.00000   0.00000 ...
   0.00000   0.00000   0.00000   0.00000   0.03540   0.00000   0.00000  -0.01457   0.00000   0.00000   0.00000  -0.00000 ...
   0.00000   0.00000  -0.01457   0.00000   0.00000  -0.01122   0.00000   0.00000   0.00000   0.00000   0.00000   0.00000 ...
   0.00000   0.00000   0.00000  -0.01456   0.00000   0.00000  -0.01122   0.00000   0.00000   0.00000   0.00000   0.00000 ...
   0.00000   0.00000   0.00000   0.00000  -0.01457   0.00000   0.00000  -0.01122   0.00000   0.00000   0.00000  -0.00000 ...
   0.00000   0.00000   0.00000   0.00000   0.00000   0.00000   0.00000   0.00000  -0.07942   0.00000   0.00000   0.00000 ...
   0.00000   0.00000   0.00000   0.00000   0.00000   0.00000   0.00000   0.00000   0.00000  -0.07939   0.00000   0.00000 ...
   0.00002   0.00002   0.00000   0.00000   0.00000   0.00000   0.00000   0.00000   0.00000   0.00000  -0.07940   0.00000 ...
   0.00000   0.00000   0.00000   0.00000  -0.00000   0.00000   0.00000  -0.00000   0.00000   0.00000   0.00000  -0.07939 ...
   ...  only 12  components have been written...
 Atom # 20 - Spin component 1
   0.31903  -0.51464  -0.00053   0.00000  -0.00053   0.00169   0.00000   0.00169
  -0.51464   0.94643   0.00083   0.00000   0.00083  -0.00261   0.00000  -0.00261
  -0.00053   0.00083  -0.48127   0.00000  -0.00145   0.75427   0.00000   0.00400
   0.00000   0.00000   0.00000  -0.48030   0.00000   0.00000   0.75156   0.00000
  -0.00053   0.00083  -0.00145   0.00000  -0.48127   0.00400   0.00000   0.75427
   0.00169  -0.00261   0.75427   0.00000   0.00400   0.06323   0.00000  -0.01068
   0.00000   0.00000   0.00000   0.75156   0.00000   0.00000   0.07045   0.00000
   0.00169  -0.00261   0.00400   0.00000   0.75427  -0.01068   0.00000   0.06323
 Atom # 20 - Spin component 2
   0.31930  -0.51508  -0.00015   0.00000  -0.00015   0.00055   0.00000   0.00055
  -0.51508   0.94714   0.00025   0.00000   0.00025  -0.00084   0.00000  -0.00084
  -0.00015   0.00025  -0.48087   0.00000  -0.00139   0.75320   0.00000   0.00386
   0.00000   0.00000   0.00000  -0.47946   0.00000   0.00000   0.74930   0.00000
  -0.00015   0.00025  -0.00139   0.00000  -0.48087   0.00386   0.00000   0.75320
   0.00055  -0.00084   0.75320   0.00000   0.00386   0.06613   0.00000  -0.01029
   0.00000   0.00000   0.00000   0.74930   0.00000   0.00000   0.07650   0.00000
   0.00055  -0.00084   0.00386   0.00000   0.75320  -0.01029   0.00000   0.06613
 
 
 Augmentation waves occupancies Rhoij:
 Atom #  1 - Spin component 1
   1.01832  -0.01652   0.00000   0.00000   0.00000   0.00000   0.00000   0.00000   0.00001   0.00000  -0.00034   0.00000 ...
  -0.01652   0.01508   0.00000   0.00000   0.00000   0.00000   0.00000   0.00000  -0.00001   0.00000   0.00017   0.00000 ...
   0.00000   0.00000   1.03898   0.00000   0.00002  -0.12240   0.00000   0.00001   0.00000   0.00016   0.00000  -0.00008 ...
   0.00000   0.00000   0.00000   1.04280   0.00000   0.00000  -0.13130   0.00000   0.00000   0.00000   0.00000   0.00000 ...
   0.00000   0.00000   0.00002   0.00000   1.03898   0.00001   0.00000  -0.12240   0.00000   0.00008   0.00000  -0.00016 ...
   0.00000   0.00000  -0.12240   0.00000   0.00001   0.40926   0.00000  -0.00024   0.00000  -0.00042   0.00000   0.00022 ...
   0.00000   0.00000   0.00000  -0.13130   0.00000   0.00000   0.42394   0.00000   0.00000   0.00000   0.00000   0.00000 ...
   0.00000   0.00000   0.00001   0.00000  -0.12240  -0.00024   0.00000   0.40926   0.00000  -0.00022   0.00000   0.00042 ...
   0.00001  -0.00001   0.00000   0.00000   0.00000   0.00000   0.00000   0.00000   0.00136   0.00000   0.00001   0.00000 ...
   0.00000   0.00000   0.00016   0.00000   0.00008  -0.00042   0.00000  -0.00022   0.00000   0.00209   0.00000   0.00002 ...
  -0.00034   0.00017   0.00000   0.00000   0.00000   0.00000   0.00000   0.00000   0.00001   0.00000   0.00127   0.00000 ...
   0.00000   0.00000  -0.00008   0.00000  -0.00016   0.00022   0.00000   0.00042   0.00000   0.00002   0.00000   0.00209 ...
   ...  only 12  components have been written...
 Atom #  1 - Spin component 2
   1.01832  -0.01652   0.00000   0.00000   0.00000   0.00000   0.00000   0.00000  -0.00001   0.00000  -0.00034   0.00000 ...
  -0.01652   0.01508   0.00000   0.00000   0.00000   0.00000   0.00000   0.00000   0.00001   0.00000   0.00017   0.00000 ...
   0.00000   0.00000   1.03898   0.00000  -0.00002  -0.12240   0.00000  -0.00001   0.00000  -0.00016   0.00000  -0.00008 ...
   0.00000   0.00000   0.00000   1.04280   0.00000   0.00000  -0.13130   0.00000   0.00000   0.00000   0.00000   0.00000 ...
   0.00000   0.00000  -0.00002   0.00000   1.03898  -0.00001   0.00000  -0.12240   0.00000   0.00008   0.00000   0.00016 ...
   0.00000   0.00000  -0.12240   0.00000  -0.00001   0.40926   0.00000   0.00024   0.00000   0.00042   0.00000   0.00022 ...
   0.00000   0.00000   0.00000  -0.13130   0.00000   0.00000   0.42394   0.00000   0.00000   0.00000   0.00000   0.00000 ...
   0.00000   0.00000  -0.00001   0.00000  -0.12240   0.00024   0.00000   0.40926   0.00000  -0.00022   0.00000  -0.00042 ...
  -0.00001   0.00001   0.00000   0.00000   0.00000   0.00000   0.00000   0.00000   0.00136   0.00000  -0.00001   0.00000 ...
   0.00000   0.00000  -0.00016   0.00000   0.00008   0.00042   0.00000  -0.00022   0.00000   0.00209   0.00000  -0.00002 ...
  -0.00034   0.00017   0.00000   0.00000   0.00000   0.00000   0.00000   0.00000  -0.00001   0.00000   0.00127   0.00000 ...
   0.00000   0.00000  -0.00008   0.00000   0.00016   0.00022   0.00000  -0.00042   0.00000  -0.00002   0.00000   0.00209 ...
   ...  only 12  components have been written...
 Atom # 20 - Spin component 1
   0.99652   0.01362   0.00314   0.00000   0.00314  -0.00003   0.00000  -0.00003
   0.01362   0.00076  -0.00078   0.00000  -0.00078   0.00015   0.00000   0.00015
   0.00314  -0.00078   0.95132   0.00000  -0.01951   0.01875   0.00000   0.00393
   0.00000   0.00000   0.00000   0.97078   0.00000   0.00000   0.01485   0.00000
   0.00314  -0.00078  -0.01951   0.00000   0.95132   0.00393   0.00000   0.01875
  -0.00003   0.00015   0.01875   0.00000   0.00393   0.00057   0.00000   0.00023
   0.00000   0.00000   0.00000   0.01485   0.00000   0.00000   0.00034   0.00000
  -0.00003   0.00015   0.00393   0.00000   0.01875   0.00023   0.00000   0.00057
 Atom # 20 - Spin component 2
   0.99686   0.01378  -0.00353   0.00000  -0.00353   0.00089   0.00000   0.00089
   0.01378   0.00077   0.00345   0.00000   0.00345  -0.00004   0.00000  -0.00004
  -0.00353   0.00345   0.95035   0.00000  -0.02054   0.01896   0.00000   0.00404
   0.00000   0.00000   0.00000   0.95830   0.00000   0.00000   0.01569   0.00000
  -0.00353   0.00345  -0.02054   0.00000   0.95035   0.00404   0.00000   0.01896
   0.00089  -0.00004   0.01896   0.00000   0.00404   0.00056   0.00000   0.00021
   0.00000   0.00000   0.00000   0.01569   0.00000   0.00000   0.00033   0.00000
   0.00089  -0.00004   0.00404   0.00000   0.01896   0.00021   0.00000   0.00056
 
 "PAW+U" part of augmentation waves occupancies Rhoij:
 Atom #  5 - L=2 ONLY - Spin component 1
   0.09264   0.00000   0.01901   0.00000   0.00000   0.02490   0.00000   0.00346   0.00000   0.00000
   0.00000   0.53822   0.00000   0.50343   0.00000   0.00000   0.00339   0.00000  -0.00493   0.00000
   0.01901   0.00000   0.10648   0.00000   0.00000   0.00364   0.00000   0.02727   0.00000   0.00000
   0.00000   0.50343   0.00000   0.53822   0.00000   0.00000  -0.00493   0.00000   0.00339   0.00000
   0.00000   0.00000   0.00000   0.00000   1.04222   0.00000   0.00000   0.00000   0.00000  -0.00180
   0.02490   0.00000   0.00364   0.00000   0.00000   0.00750   0.00000   0.00073   0.00000   0.00000
   0.00000   0.00339   0.00000  -0.00493   0.00000   0.00000   0.00229   0.00000   0.00027   0.00000
   0.00346   0.00000   0.02727   0.00000   0.00000   0.00073   0.00000   0.00794   0.00000   0.00000
   0.00000  -0.00493   0.00000   0.00339   0.00000   0.00000   0.00027   0.00000   0.00229   0.00000
   0.00000   0.00000   0.00000   0.00000  -0.00180   0.00000   0.00000   0.00000   0.00000   0.00274
 Atom #  5 - L=2 ONLY - Spin component 2
   1.04971   0.00000  -0.00070   0.00000   0.00000  -0.05639   0.00000  -0.00576   0.00000   0.00000
   0.00000   1.04130   0.00000  -0.00089   0.00000   0.00000  -0.03888   0.00000   0.00880   0.00000
  -0.00070   0.00000   1.04905   0.00000   0.00000  -0.00580   0.00000  -0.06200   0.00000   0.00000
   0.00000  -0.00089   0.00000   1.04130   0.00000   0.00000   0.00880   0.00000  -0.03888   0.00000
   0.00000   0.00000   0.00000   0.00000   1.04190   0.00000   0.00000   0.00000   0.00000  -0.03102
  -0.05639   0.00000  -0.00580   0.00000   0.00000   0.01742   0.00000   0.00270   0.00000   0.00000
   0.00000  -0.03888   0.00000   0.00880   0.00000   0.00000   0.00482   0.00000  -0.00120   0.00000
  -0.00576   0.00000  -0.06200   0.00000   0.00000   0.00270   0.00000   0.01941   0.00000   0.00000
   0.00000   0.00880   0.00000  -0.03888   0.00000   0.00000  -0.00120   0.00000   0.00482   0.00000
   0.00000   0.00000   0.00000   0.00000  -0.03102   0.00000   0.00000   0.00000   0.00000   0.00396
 Atom #  6 - L=2 ONLY - Spin component 1
   1.04971   0.00000   0.00070   0.00000   0.00000  -0.05639   0.00000   0.00576   0.00000   0.00000
   0.00000   1.04130   0.00000   0.00089   0.00000   0.00000  -0.03888   0.00000  -0.00880   0.00000
   0.00070   0.00000   1.04905   0.00000   0.00000   0.00580   0.00000  -0.06200   0.00000   0.00000
   0.00000   0.00089   0.00000   1.04130   0.00000   0.00000  -0.00880   0.00000  -0.03888   0.00000
   0.00000   0.00000   0.00000   0.00000   1.04190   0.00000   0.00000   0.00000   0.00000  -0.03102
  -0.05639   0.00000   0.00580   0.00000   0.00000   0.01742   0.00000  -0.00270   0.00000   0.00000
   0.00000  -0.03888   0.00000  -0.00880   0.00000   0.00000   0.00482   0.00000   0.00120   0.00000
   0.00576   0.00000  -0.06200   0.00000   0.00000  -0.00270   0.00000   0.01941   0.00000   0.00000
   0.00000  -0.00880   0.00000  -0.03888   0.00000   0.00000   0.00120   0.00000   0.00482   0.00000
   0.00000   0.00000   0.00000   0.00000  -0.03102   0.00000   0.00000   0.00000   0.00000   0.00396
 Atom #  6 - L=2 ONLY - Spin component 2
   0.09264   0.00000  -0.01901   0.00000   0.00000   0.02490   0.00000  -0.00346   0.00000   0.00000
   0.00000   0.53822   0.00000  -0.50343   0.00000   0.00000   0.00339   0.00000   0.00493   0.00000
  -0.01901   0.00000   0.10648   0.00000   0.00000  -0.00364   0.00000   0.02727   0.00000   0.00000
   0.00000  -0.50343   0.00000   0.53822   0.00000   0.00000   0.00493   0.00000   0.00339   0.00000
   0.00000   0.00000   0.00000   0.00000   1.04222   0.00000   0.00000   0.00000   0.00000  -0.00180
   0.02490   0.00000  -0.00364   0.00000   0.00000   0.00750   0.00000  -0.00073   0.00000   0.00000
   0.00000   0.00339   0.00000   0.00493   0.00000   0.00000   0.00229   0.00000  -0.00027   0.00000
  -0.00346   0.00000   0.02727   0.00000   0.00000  -0.00073   0.00000   0.00794   0.00000   0.00000
   0.00000   0.00493   0.00000   0.00339   0.00000   0.00000  -0.00027   0.00000   0.00229   0.00000
   0.00000   0.00000   0.00000   0.00000  -0.00180   0.00000   0.00000   0.00000   0.00000   0.00274
 Atom #  7 - L=2 ONLY - Spin component 1
   1.04971   0.00000   0.00070   0.00000   0.00000  -0.05639   0.00000   0.00576   0.00000   0.00000
   0.00000   1.04130   0.00000   0.00089   0.00000   0.00000  -0.03888   0.00000  -0.00880   0.00000
   0.00070   0.00000   1.04905   0.00000   0.00000   0.00580   0.00000  -0.06200   0.00000   0.00000
   0.00000   0.00089   0.00000   1.04130   0.00000   0.00000  -0.00880   0.00000  -0.03888   0.00000
   0.00000   0.00000   0.00000   0.00000   1.04190   0.00000   0.00000   0.00000   0.00000  -0.03102
  -0.05639   0.00000   0.00580   0.00000   0.00000   0.01742   0.00000  -0.00270   0.00000   0.00000
   0.00000  -0.03888   0.00000  -0.00880   0.00000   0.00000   0.00482   0.00000   0.00120   0.00000
   0.00576   0.00000  -0.06200   0.00000   0.00000  -0.00270   0.00000   0.01941   0.00000   0.00000
   0.00000  -0.00880   0.00000  -0.03888   0.00000   0.00000   0.00120   0.00000   0.00482   0.00000
   0.00000   0.00000   0.00000   0.00000  -0.03102   0.00000   0.00000   0.00000   0.00000   0.00396
 Atom #  7 - L=2 ONLY - Spin component 2
   0.09264   0.00000  -0.01901   0.00000   0.00000   0.02490   0.00000  -0.00346   0.00000   0.00000
   0.00000   0.53822   0.00000  -0.50343   0.00000   0.00000   0.00339   0.00000   0.00493   0.00000
  -0.01901   0.00000   0.10648   0.00000   0.00000  -0.00364   0.00000   0.02727   0.00000   0.00000
   0.00000  -0.50343   0.00000   0.53822   0.00000   0.00000   0.00493   0.00000   0.00339   0.00000
   0.00000   0.00000   0.00000   0.00000   1.04222   0.00000   0.00000   0.00000   0.00000  -0.00180
   0.02490   0.00000  -0.00364   0.00000   0.00000   0.00750   0.00000  -0.00073   0.00000   0.00000
   0.00000   0.00339   0.00000   0.00493   0.00000   0.00000   0.00229   0.00000  -0.00027   0.00000
  -0.00346   0.00000   0.02727   0.00000   0.00000  -0.00073   0.00000   0.00794   0.00000   0.00000
   0.00000   0.00493   0.00000   0.00339   0.00000   0.00000  -0.00027   0.00000   0.00229   0.00000
   0.00000   0.00000   0.00000   0.00000  -0.00180   0.00000   0.00000   0.00000   0.00000   0.00274
 Atom #  8 - L=2 ONLY - Spin component 1
   0.09264   0.00000   0.01901   0.00000   0.00000   0.02490   0.00000   0.00346   0.00000   0.00000
   0.00000   0.53822   0.00000   0.50343   0.00000   0.00000   0.00339   0.00000  -0.00493   0.00000
   0.01901   0.00000   0.10648   0.00000   0.00000   0.00364   0.00000   0.02727   0.00000   0.00000
   0.00000   0.50343   0.00000   0.53822   0.00000   0.00000  -0.00493   0.00000   0.00339   0.00000
   0.00000   0.00000   0.00000   0.00000   1.04222   0.00000   0.00000   0.00000   0.00000  -0.00180
   0.02490   0.00000   0.00364   0.00000   0.00000   0.00750   0.00000   0.00073   0.00000   0.00000
   0.00000   0.00339   0.00000  -0.00493   0.00000   0.00000   0.00229   0.00000   0.00027   0.00000
   0.00346   0.00000   0.02727   0.00000   0.00000   0.00073   0.00000   0.00794   0.00000   0.00000
   0.00000  -0.00493   0.00000   0.00339   0.00000   0.00000   0.00027   0.00000   0.00229   0.00000
   0.00000   0.00000   0.00000   0.00000  -0.00180   0.00000   0.00000   0.00000   0.00000   0.00274
 Atom #  8 - L=2 ONLY - Spin component 2
   1.04971   0.00000  -0.00070   0.00000   0.00000  -0.05639   0.00000  -0.00576   0.00000   0.00000
   0.00000   1.04130   0.00000  -0.00089   0.00000   0.00000  -0.03888   0.00000   0.00880   0.00000
  -0.00070   0.00000   1.04905   0.00000   0.00000  -0.00580   0.00000  -0.06200   0.00000   0.00000
   0.00000  -0.00089   0.00000   1.04130   0.00000   0.00000   0.00880   0.00000  -0.03888   0.00000
   0.00000   0.00000   0.00000   0.00000   1.04190   0.00000   0.00000   0.00000   0.00000  -0.03102
  -0.05639   0.00000  -0.00580   0.00000   0.00000   0.01742   0.00000   0.00270   0.00000   0.00000
   0.00000  -0.03888   0.00000   0.00880   0.00000   0.00000   0.00482   0.00000  -0.00120   0.00000
  -0.00576   0.00000  -0.06200   0.00000   0.00000   0.00270   0.00000   0.01941   0.00000   0.00000
   0.00000   0.00880   0.00000  -0.03888   0.00000   0.00000  -0.00120   0.00000   0.00482   0.00000
   0.00000   0.00000   0.00000   0.00000  -0.03102   0.00000   0.00000   0.00000   0.00000   0.00396
 
 ---------- LDA+U DATA --------------------------------------------------- 
 
 ====== For Atom     5, occupations for correlated orbitals. lpawu =   2
 
 Atom   5. Occ. for lpawu and for spin  1 =   2.05710
 Atom   5. Occ. for lpawu and for spin  2 =   4.78735
 => On atom   5,  local Mag. for lpawu is        2.730252
 
 == Occupation matrix for correlated orbitals:
 
 Occupation matrix for spin  1
     0.07688    0.00000    0.01592    0.00000    0.00000
     0.00000    0.47994    0.00000    0.45115    0.00000
     0.01592    0.00000    0.08850    0.00000    0.00000
     0.00000    0.45115    0.00000    0.47994    0.00000
     0.00000    0.00000    0.00000    0.00000    0.93183
 
 
 Occupation matrix for spin  2
     0.97147    0.00000    0.00362    0.00000    0.00000
     0.00000    0.94822    0.00000   -0.00534    0.00000
     0.00362    0.00000    0.97459    0.00000    0.00000
     0.00000   -0.00534    0.00000    0.94822    0.00000
     0.00000    0.00000    0.00000    0.00000    0.94483
 
 
 ====== For Atom     6, occupations for correlated orbitals. lpawu =   2
 
 Atom   6. Occ. for lpawu and for spin  1 =   4.78735
 Atom   6. Occ. for lpawu and for spin  2 =   2.05710
 => On atom   6,  local Mag. for lpawu is       -2.730252
 
 == Occupation matrix for correlated orbitals:
 
 Occupation matrix for spin  1
     0.97147    0.00000   -0.00362    0.00000    0.00000
     0.00000    0.94822    0.00000    0.00534    0.00000
    -0.00362    0.00000    0.97459    0.00000    0.00000
     0.00000    0.00534    0.00000    0.94822    0.00000
     0.00000    0.00000    0.00000    0.00000    0.94483
 
 
 Occupation matrix for spin  2
     0.07688    0.00000   -0.01592    0.00000    0.00000
     0.00000    0.47994    0.00000   -0.45115    0.00000
    -0.01592    0.00000    0.08850    0.00000    0.00000
     0.00000   -0.45115    0.00000    0.47994    0.00000
     0.00000    0.00000    0.00000    0.00000    0.93183
 
 
 ====== For Atom     7, occupations for correlated orbitals. lpawu =   2
 
 Atom   7. Occ. for lpawu and for spin  1 =   4.78735
 Atom   7. Occ. for lpawu and for spin  2 =   2.05710
 => On atom   7,  local Mag. for lpawu is       -2.730252
 
 == Occupation matrix for correlated orbitals:
 
 Occupation matrix for spin  1
     0.97147    0.00000   -0.00362    0.00000    0.00000
     0.00000    0.94822    0.00000    0.00534    0.00000
    -0.00362    0.00000    0.97459    0.00000    0.00000
     0.00000    0.00534    0.00000    0.94822    0.00000
     0.00000    0.00000    0.00000    0.00000    0.94483
 
 
 Occupation matrix for spin  2
     0.07688    0.00000   -0.01592    0.00000    0.00000
     0.00000    0.47994    0.00000   -0.45115    0.00000
    -0.01592    0.00000    0.08850    0.00000    0.00000
     0.00000   -0.45115    0.00000    0.47994    0.00000
     0.00000    0.00000    0.00000    0.00000    0.93183
 
 
 ====== For Atom     8, occupations for correlated orbitals. lpawu =   2
 
 Atom   8. Occ. for lpawu and for spin  1 =   2.05710
 Atom   8. Occ. for lpawu and for spin  2 =   4.78735
 => On atom   8,  local Mag. for lpawu is        2.730252
 
 == Occupation matrix for correlated orbitals:
 
 Occupation matrix for spin  1
     0.07688    0.00000    0.01592    0.00000    0.00000
     0.00000    0.47994    0.00000    0.45115    0.00000
     0.01592    0.00000    0.08850    0.00000    0.00000
     0.00000    0.45115    0.00000    0.47994    0.00000
     0.00000    0.00000    0.00000    0.00000    0.93183
 
 
 Occupation matrix for spin  2
     0.97147    0.00000    0.00362    0.00000    0.00000
     0.00000    0.94822    0.00000   -0.00534    0.00000
     0.00362    0.00000    0.97459    0.00000    0.00000
     0.00000   -0.00534    0.00000    0.94822    0.00000
     0.00000    0.00000    0.00000    0.00000    0.94483
 
 
 
================================================================================
 
 ----iterations are completed or convergence reached----
 
 Mean square residual over all n,k,spin=   3.9391E-08; max=  1.1262E-05
 reduced coordinates (array xred) for   20 atoms
       0.000000000000     -0.000000000000     -0.000000000000
       0.500000000000      0.500000000000      0.000000000000
       0.000000000000     -0.000000000000      0.500000000000
       0.500000000000      0.500000000000      0.500000000000
       0.500000000000     -0.000000000000      0.250000000000
       0.000000000000      0.500000000000      0.250000000000
       0.500000000000     -0.000000000000      0.750000000000
       0.000000000000      0.500000000000      0.750000000000
       0.500000000000     -0.000000000000      0.000000000000
       0.000000000000      0.500000000000      0.000000000000
       0.500000000000     -0.000000000000      0.500000000000
       0.000000000000      0.500000000000      0.500000000000
       0.255820071950      0.244179928050      0.250000000000
       0.755820071950      0.255820071950      0.250000000000
       0.744179928050      0.755820071950      0.250000000000
       0.244179928050      0.744179928050      0.250000000000
       0.244179928050      0.255820071950      0.750000000000
       0.744179928050      0.244179928050      0.750000000000
       0.755820071950      0.744179928050      0.750000000000
       0.255820071950      0.755820071950      0.750000000000
 rms dE/dt=  1.2291E-04; max dE/dt=  2.3801E-04; dE/dt below (all hartree)
    1       0.000000000000      0.000000000000      0.000000000000
    2       0.000000000000      0.000000000000      0.000000000000
    3       0.000000000000      0.000000000000      0.000000000000
    4       0.000000000000      0.000000000000      0.000000000000
    5       0.000000000000      0.000000000000      0.000000000000
    6       0.000000000000      0.000000000000      0.000000000000
    7       0.000000000000      0.000000000000      0.000000000000
    8       0.000000000000      0.000000000000      0.000000000000
    9       0.000000000000      0.000000000000      0.000000000000
   10       0.000000000000      0.000000000000      0.000000000000
   11       0.000000000000      0.000000000000      0.000000000000
   12       0.000000000000      0.000000000000      0.000000000000
   13       0.000238013149     -0.000238013149      0.000000000000
   14       0.000238013149      0.000238013149      0.000000000000
   15      -0.000238013149      0.000238013149      0.000000000000
   16      -0.000238013149     -0.000238013149      0.000000000000
   17      -0.000238013149      0.000238013149      0.000000000000
   18      -0.000238013149     -0.000238013149      0.000000000000
   19       0.000238013149     -0.000238013149      0.000000000000
   20       0.000238013149      0.000238013149      0.000000000000
 
 cartesian coordinates (angstrom) at end:
    1      0.00000000000000    -0.00000000000000    -0.00000000000000
    2      2.88049640647553     2.88049640647553     0.00000000000000
    3      0.00000000000000    -0.00000000000000     4.01006140605591
    4      2.88049640647553     2.88049640647553     4.01006140605591
    5      2.88049640647553    -0.00000000000000     2.00503070302796
    6      0.00000000000000     2.88049640647553     2.00503070302796
    7      2.88049640647553    -0.00000000000000     6.01509210908387
    8      0.00000000000000     2.88049640647553     6.01509210908387
    9      2.88049640647553    -0.00000000000000     0.00000000000000
   10      0.00000000000000     2.88049640647553     0.00000000000000
   11      2.88049640647553    -0.00000000000000     4.01006140605591
   12      0.00000000000000     2.88049640647553     4.01006140605591
   13      1.47377759591257     1.40671881056296     2.00503070302796
   14      4.35427400238811     1.47377759591257     2.00503070302796
   15      4.28721521703849     4.35427400238811     2.00503070302796
   16      1.40671881056296     4.28721521703849     2.00503070302796
   17      1.40671881056296     1.47377759591257     6.01509210908387
   18      4.28721521703849     1.40671881056296     6.01509210908387
   19      4.35427400238811     4.28721521703849     6.01509210908387
   20      1.47377759591257     4.35427400238811     6.01509210908387
 
 cartesian forces (hartree/bohr) at end:
    1      0.00000000000000     0.00000000000000     0.00000000000000
    2      0.00000000000000     0.00000000000000     0.00000000000000
    3      0.00000000000000     0.00000000000000     0.00000000000000
    4      0.00000000000000     0.00000000000000     0.00000000000000
    5      0.00000000000000     0.00000000000000     0.00000000000000
    6      0.00000000000000     0.00000000000000     0.00000000000000
    7      0.00000000000000     0.00000000000000     0.00000000000000
    8      0.00000000000000     0.00000000000000     0.00000000000000
    9      0.00000000000000     0.00000000000000     0.00000000000000
   10      0.00000000000000     0.00000000000000     0.00000000000000
   11      0.00000000000000     0.00000000000000     0.00000000000000
   12      0.00000000000000     0.00000000000000     0.00000000000000
   13     -0.00002186274790     0.00002186274790     0.00000000000000
   14     -0.00002186274790    -0.00002186274790     0.00000000000000
   15      0.00002186274790    -0.00002186274790     0.00000000000000
   16      0.00002186274790     0.00002186274790     0.00000000000000
   17      0.00002186274790    -0.00002186274790     0.00000000000000
   18      0.00002186274790     0.00002186274790     0.00000000000000
   19     -0.00002186274790     0.00002186274790     0.00000000000000
   20     -0.00002186274790    -0.00002186274790     0.00000000000000
 frms,max,avg= 1.1289874E-05 2.1862748E-05   0.000E+00  0.000E+00  0.000E+00 h/b
 
 cartesian forces (eV/Angstrom) at end:
    1      0.00000000000000     0.00000000000000     0.00000000000000
    2      0.00000000000000     0.00000000000000     0.00000000000000
    3      0.00000000000000     0.00000000000000     0.00000000000000
    4      0.00000000000000     0.00000000000000     0.00000000000000
    5      0.00000000000000     0.00000000000000     0.00000000000000
    6      0.00000000000000     0.00000000000000     0.00000000000000
    7      0.00000000000000     0.00000000000000     0.00000000000000
    8      0.00000000000000     0.00000000000000     0.00000000000000
    9      0.00000000000000     0.00000000000000     0.00000000000000
   10      0.00000000000000     0.00000000000000     0.00000000000000
   11      0.00000000000000     0.00000000000000     0.00000000000000
   12      0.00000000000000     0.00000000000000     0.00000000000000
   13     -0.00112422760415     0.00112422760415     0.00000000000000
   14     -0.00112422760415    -0.00112422760415     0.00000000000000
   15      0.00112422760415    -0.00112422760415     0.00000000000000
   16      0.00112422760415     0.00112422760415     0.00000000000000
   17      0.00112422760415    -0.00112422760415     0.00000000000000
   18      0.00112422760415     0.00112422760415     0.00000000000000
   19     -0.00112422760415     0.00112422760415     0.00000000000000
   20     -0.00112422760415    -0.00112422760415     0.00000000000000
 frms,max,avg= 5.8054864E-04 1.1242276E-03   0.000E+00  0.000E+00  0.000E+00 e/A
 length scales= 10.886698670000 10.886698670000 15.155835667000 bohr
              =  5.760992812951  5.760992812951  8.020122812112 angstroms
 prteigrs : about to open file abinit-o_EIG
 Fermi (or HOMO) energy (hartree) =   0.18382   Average Vxc (hartree)=  -0.36527
 Eigenvalues (hartree) for nkpt=   6  k points:
 kpt#   1, nband=128, wtk=  0.12500, kpt=  0.1250  0.1250  0.2500 (reduced coord)
  -3.37790   -3.37790   -3.25871   -3.25871   -2.05505   -2.05505   -2.05387   -2.05387
  -1.99049   -1.99049   -1.92727   -1.92727   -1.92608   -1.92608   -1.89722   -1.89722
  -0.90422   -0.90361   -0.90307   -0.90272   -0.70554   -0.69953   -0.69926   -0.69612
  -0.69162   -0.68681   -0.68538   -0.68534   -0.68423   -0.68388   -0.68093   -0.68073
  -0.30547   -0.30525   -0.30404   -0.30293   -0.30271   -0.30059   -0.30055   -0.30003
  -0.29928   -0.29926   -0.29876   -0.29799   -0.11978   -0.11637   -0.10060   -0.09619
  -0.08495   -0.08190   -0.06958   -0.06692   -0.06400   -0.06209   -0.05747   -0.05630
  -0.05575   -0.05222   -0.05080   -0.04960   -0.04536   -0.03113   -0.02632   -0.01668
  -0.01371   -0.00904   -0.00085   -0.00068    0.00282    0.00659    0.00690    0.00715
   0.00815    0.00869    0.01046    0.01053    0.01609    0.02295    0.02478    0.02692
   0.02771    0.02812    0.05268    0.05300    0.05384    0.05652    0.06160    0.06531
   0.07457    0.07462    0.11882    0.12049    0.12181    0.12212    0.23462    0.23636
   0.25812    0.27164    0.28536    0.29736    0.30075    0.35497    0.40345    0.40642
   0.40974    0.41124    0.41465    0.41682    0.41963    0.43484    0.43594    0.45590
   0.46664    0.48834    0.48847    0.48927    0.49296    0.49420    0.49611    0.49644
   0.50805    0.50842    0.51280    0.51767    0.52314    0.53741    0.53890    0.54669
      occupation numbers for kpt#   1
   2.00000    2.00000    2.00000    2.00000    2.00000    2.00000    2.00000    2.00000
   2.00000    2.00000    2.00000    2.00000    2.00000    2.00000    2.00000    2.00000
   2.00000    2.00000    2.00000    2.00000    2.00000    2.00000    2.00000    2.00000
   2.00000    2.00000    2.00000    2.00000    2.00000    2.00000    2.00000    2.00000
   2.00000    2.00000    2.00000    2.00000    2.00000    2.00000    2.00000    2.00000
   2.00000    2.00000    2.00000    2.00000    2.00000    2.00000    2.00000    2.00000
   2.00000    2.00000    2.00000    2.00000    2.00000    2.00000    2.00000    2.00000
   2.00000    2.00000    2.00000    2.00000    2.00000    2.00000    2.00000    2.00000
   2.00000    2.00000    2.00000    2.00000    2.00000    2.00000    2.00000    2.00000
   2.00000    2.00000    2.00000    2.00000    2.00000    2.00000    2.00000    2.00000
   2.00000    2.00000    2.00000    2.00000    2.00000    2.00000    2.00000    2.00000
   2.00000    2.00000    2.00000    2.00000    2.00000    2.00000    0.00000    0.00000
   0.00000    0.00000    0.00000    0.00000    0.00000    0.00000    0.00000    0.00000
   0.00000    0.00000    0.00000    0.00000    0.00000    0.00000    0.00000    0.00000
   0.00000    0.00000    0.00000    0.00000    0.00000    0.00000    0.00000    0.00000
   0.00000    0.00000    0.00000    0.00000    0.00000    0.00000    0.00000    0.00000
 prteigrs : prtvol=0 or 1, do not print more k-points.
 
 
--------------------------------------------------------------------------------
 Components of total free energy (in Hartree) :
 
    Kinetic energy  =  1.94912263982772E+02
    Hartree energy  =  3.42737934684469E+02
    XC energy       = -6.79107746031961E+01
    Ewald energy    = -5.66988047659241E+02
    PspCore energy  =  1.87505028880323E+01
    Loc. psp. energy= -1.04024594169581E+03
    Spherical terms =  1.27338345363541E+02
    >>>>> Internal E= -9.91405717039431E+02
 
    -kT*entropy     = -2.49260531725626E-17
    >>>>>>>>> Etotal= -9.91405717039431E+02
 
 "Double-counting" decomposition of free energy:
    Band energy     = -1.05297404673340E+02
    Ewald energy    = -5.66988047659241E+02
    PspCore energy  =  1.87505028880323E+01
    Dble-C XC-energy= -3.21987326779387E+02
    Spherical terms = -1.58834295166103E+01
    >>>>> Internal E= -9.91405705740545E+02
 
    -kT*entropy     = -2.49260531725626E-17
    >>>> Etotal (DC)= -9.91405705740545E+02
 
  >Total energy in eV           = -2.69775215273585E+04
  >Total DC energy in eV        = -2.69775212199002E+04
--------------------------------------------------------------------------------
 
 Cartesian components of stress tensor (hartree/bohr^3)
  sigma(1 1)=  8.72382874E-07  sigma(3 2)=  0.00000000E+00
  sigma(2 2)=  8.72382874E-07  sigma(3 1)=  0.00000000E+00
  sigma(3 3)=  2.99896859E-06  sigma(2 1)=  0.00000000E+00
 
-Cartesian components of stress tensor (GPa)         [Pressure= -4.6522E-02 GPa]
- sigma(1 1)=  2.56663860E-02  sigma(3 2)=  0.00000000E+00
- sigma(2 2)=  2.56663860E-02  sigma(3 1)=  0.00000000E+00
- sigma(3 3)=  8.82326873E-02  sigma(2 1)=  0.00000000E+00
 
== END DATASET(S) ==============================================================
================================================================================
  
 -outvars: echo values of variables after computation  --------
            acell      1.0886698670E+01  1.0886698670E+01  1.5155835667E+01 Bohr
              amu      3.90983000E+01  5.89332000E+01  1.89984032E+01
           diemac      1.20000000E+01
         dmatpawu        0.52813    0.04764    0.15597    0.46629    0.07202
                         0.04764    0.05157    0.20760   -0.03404    0.04886
                         0.15597    0.20760    0.83830   -0.17385    0.19469
                         0.46629   -0.03404   -0.17385    0.53421   -0.00461
                         0.07202    0.04886    0.19469   -0.00461    0.04778
                         1.00000   -0.00000   -0.00000   -0.00000   -0.00000
                        -0.00000    1.00000    0.00000    0.00000   -0.00000
                        -0.00000    0.00000    1.00000   -0.00000    0.00000
                        -0.00000    0.00000   -0.00000    1.00000   -0.00000
                        -0.00000   -0.00000    0.00000   -0.00000    1.00000
                         1.00000   -0.00000    0.00000   -0.00000   -0.00000
                        -0.00000    1.00000    0.00000   -0.00000    0.00000
                         0.00000    0.00000    1.00000   -0.00000    0.00000
                        -0.00000   -0.00000   -0.00000    1.00000   -0.00000
                        -0.00000    0.00000    0.00000   -0.00000    1.00000
                         0.32888    0.05200   -0.07417    0.22117    0.40447
                         0.05200    0.29658    0.34737    0.28836   -0.04584
                        -0.07417    0.34737    0.46390    0.26567   -0.22793
                         0.22117    0.28836    0.26567    0.37140    0.17554
                         0.40447   -0.04584   -0.22793    0.17554    0.53924
             ecut      2.60000000E+01 Hartree
           ecutsm      5.00000000E-01 Hartree
           etotal     -9.9140570574E+02
            fcart      0.0000000000E+00  0.0000000000E+00  0.0000000000E+00
                       0.0000000000E+00  0.0000000000E+00  0.0000000000E+00
                       0.0000000000E+00  0.0000000000E+00  0.0000000000E+00
                       0.0000000000E+00  0.0000000000E+00  0.0000000000E+00
                       0.0000000000E+00  0.0000000000E+00  0.0000000000E+00
                       0.0000000000E+00  0.0000000000E+00  0.0000000000E+00
                       0.0000000000E+00  0.0000000000E+00  0.0000000000E+00
                       0.0000000000E+00  0.0000000000E+00  0.0000000000E+00
                       0.0000000000E+00  0.0000000000E+00  0.0000000000E+00
                       0.0000000000E+00  0.0000000000E+00  0.0000000000E+00
                       0.0000000000E+00  0.0000000000E+00  0.0000000000E+00
                       0.0000000000E+00  0.0000000000E+00  0.0000000000E+00
                      -2.1862747902E-05  2.1862747902E-05  0.0000000000E+00
                      -2.1862747902E-05 -2.1862747902E-05  0.0000000000E+00
                       2.1862747902E-05 -2.1862747902E-05  0.0000000000E+00
                       2.1862747902E-05  2.1862747902E-05  0.0000000000E+00
                       2.1862747902E-05 -2.1862747902E-05  0.0000000000E+00
                       2.1862747902E-05  2.1862747902E-05  0.0000000000E+00
                      -2.1862747902E-05  2.1862747902E-05  0.0000000000E+00
                      -2.1862747902E-05 -2.1862747902E-05  0.0000000000E+00
-          fftalg         312
              ixc     -116133
              kpt      1.25000000E-01  1.25000000E-01  2.50000000E-01
                       3.75000000E-01  1.25000000E-01  2.50000000E-01
                      -3.75000000E-01  1.25000000E-01  2.50000000E-01
                      -1.25000000E-01  1.25000000E-01  2.50000000E-01
                       3.75000000E-01  3.75000000E-01  2.50000000E-01
                      -3.75000000E-01  3.75000000E-01  2.50000000E-01
         kptrlatt        4    0    0      0    4    0      0    0    2
          kptrlen      3.03116713E+01
            lpawu          -1       2      -1
P           mkmem           1
            natom          20
            nband         128
            ngfft          50      50      72
          ngfftdg          72      72     100
             nkpt           6
-           npkpt           8
           nspden           2
            nstep          50
             nsym          32
           ntypat           3
              occ      2.000000  2.000000  2.000000  2.000000  2.000000  2.000000
                       2.000000  2.000000  2.000000  2.000000  2.000000  2.000000
                       2.000000  2.000000  2.000000  2.000000  2.000000  2.000000
                       2.000000  2.000000  2.000000  2.000000  2.000000  2.000000
                       2.000000  2.000000  2.000000  2.000000  2.000000  2.000000
                       2.000000  2.000000  2.000000  2.000000  2.000000  2.000000
                       2.000000  2.000000  2.000000  2.000000  2.000000  2.000000
                       2.000000  2.000000  2.000000  2.000000  2.000000  2.000000
                       2.000000  2.000000  2.000000  2.000000  2.000000  2.000000
                       2.000000  2.000000  2.000000  2.000000  2.000000  2.000000
                       2.000000  2.000000  2.000000  2.000000  2.000000  2.000000
                       2.000000  2.000000  2.000000  2.000000  2.000000  2.000000
                       2.000000  2.000000  2.000000  2.000000  2.000000  2.000000
                       2.000000  2.000000  2.000000  2.000000  2.000000  2.000000
                       2.000000  2.000000  2.000000  2.000000  2.000000  2.000000
                       2.000000  2.000000  2.000000  2.000000  0.000000  0.000000
                       0.000000  0.000000  0.000000  0.000000  0.000000  0.000000
                       0.000000  0.000000  0.000000  0.000000  0.000000  0.000000
                       0.000000  0.000000  0.000000  0.000000  0.000000  0.000000
                       0.000000  0.000000  0.000000  0.000000  0.000000  0.000000
                       0.000000  0.000000  0.000000  0.000000  0.000000  0.000000
                       0.000000  0.000000
                       2.000000  2.000000  2.000000  2.000000  2.000000  2.000000
                       2.000000  2.000000  2.000000  2.000000  2.000000  2.000000
                       2.000000  2.000000  2.000000  2.000000  2.000000  2.000000
                       2.000000  2.000000  2.000000  2.000000  2.000000  2.000000
                       2.000000  2.000000  2.000000  2.000000  2.000000  2.000000
                       2.000000  2.000000  2.000000  2.000000  2.000000  2.000000
                       2.000000  2.000000  2.000000  2.000000  2.000000  2.000000
                       2.000000  2.000000  2.000000  2.000000  2.000000  2.000000
                       2.000000  2.000000  2.000000  2.000000  2.000000  2.000000
                       2.000000  2.000000  2.000000  2.000000  2.000000  2.000000
                       2.000000  2.000000  2.000000  2.000000  2.000000  2.000000
                       2.000000  2.000000  2.000000  2.000000  2.000000  2.000000
                       2.000000  2.000000  2.000000  2.000000  2.000000  2.000000
                       2.000000  2.000000  2.000000  2.000000  2.000000  2.000000
                       2.000000  2.000000  2.000000  2.000000  2.000000  2.000000
                       2.000000  2.000000  2.000000  2.000000  0.000000  0.000000
                       0.000000  0.000000  0.000000  0.000000  0.000000  0.000000
                       0.000000  0.000000  0.000000  0.000000  0.000000  0.000000
                       0.000000  0.000000  0.000000  0.000000  0.000000  0.000000
                       0.000000  0.000000  0.000000  0.000000  0.000000  0.000000
                       0.000000  0.000000  0.000000  0.000000  0.000000  0.000000
                       0.000000  0.000000
                       2.000000  2.000000  2.000000  2.000000  2.000000  2.000000
                       2.000000  2.000000  2.000000  2.000000  2.000000  2.000000
                       2.000000  2.000000  2.000000  2.000000  2.000000  2.000000
                       2.000000  2.000000  2.000000  2.000000  2.000000  2.000000
                       2.000000  2.000000  2.000000  2.000000  2.000000  2.000000
                       2.000000  2.000000  2.000000  2.000000  2.000000  2.000000
                       2.000000  2.000000  2.000000  2.000000  2.000000  2.000000
                       2.000000  2.000000  2.000000  2.000000  2.000000  2.000000
                       2.000000  2.000000  2.000000  2.000000  2.000000  2.000000
[...]
                       2.000000  2.000000  2.000000  2.000000  2.000000  2.000000
                       2.000000  2.000000  2.000000  2.000000  2.000000  2.000000
                       2.000000  2.000000  2.000000  2.000000  2.000000  2.000000
                       2.000000  2.000000  2.000000  2.000000  2.000000  2.000000
                       2.000000  2.000000  2.000000  2.000000  2.000000  2.000000
                       2.000000  2.000000  2.000000  2.000000  2.000000  2.000000
                       2.000000  2.000000  2.000000  2.000000  2.000000  2.000000
                       2.000000  2.000000  2.000000  2.000000  2.000000  2.000000
                       2.000000  2.000000  2.000000  2.000000  2.000000  2.000000
                       2.000000  2.000000  2.000000  2.000000  2.000000  2.000000
                       2.000000  2.000000  2.000000  2.000000  2.000000  2.000000
                       2.000000  2.000000  2.000000  2.000000  2.000000  2.000000
                       2.000000  2.000000  2.000000  2.000000  2.000000  2.000000
                       2.000000  2.000000  2.000000  2.000000  0.000000  0.000000
                       0.000000  0.000000  0.000000  0.000000  0.000000  0.000000
                       0.000000  0.000000  0.000000  0.000000  0.000000  0.000000
                       0.000000  0.000000  0.000000  0.000000  0.000000  0.000000
                       0.000000  0.000000  0.000000  0.000000  0.000000  0.000000
                       0.000000  0.000000  0.000000  0.000000  0.000000  0.000000
                       0.000000  0.000000
                       2.000000  2.000000  2.000000  2.000000  2.000000  2.000000
                       2.000000  2.000000  2.000000  2.000000  2.000000  2.000000
                       2.000000  2.000000  2.000000  2.000000  2.000000  2.000000
                       2.000000  2.000000  2.000000  2.000000  2.000000  2.000000
                       2.000000  2.000000  2.000000  2.000000  2.000000  2.000000
                       2.000000  2.000000  2.000000  2.000000  2.000000  2.000000
                       2.000000  2.000000  2.000000  2.000000  2.000000  2.000000
                       2.000000  2.000000  2.000000  2.000000  2.000000  2.000000
                       2.000000  2.000000  2.000000  2.000000  2.000000  2.000000
                       2.000000  2.000000  2.000000  2.000000  2.000000  2.000000
                       2.000000  2.000000  2.000000  2.000000  2.000000  2.000000
                       2.000000  2.000000  2.000000  2.000000  2.000000  2.000000
                       2.000000  2.000000  2.000000  2.000000  2.000000  2.000000
                       2.000000  2.000000  2.000000  2.000000  2.000000  2.000000
                       2.000000  2.000000  2.000000  2.000000  2.000000  2.000000
                       2.000000  2.000000  2.000000  2.000000  0.000000  0.000000
                       0.000000  0.000000  0.000000  0.000000  0.000000  0.000000
                       0.000000  0.000000  0.000000  0.000000  0.000000  0.000000
                       0.000000  0.000000  0.000000  0.000000  0.000000  0.000000
                       0.000000  0.000000  0.000000  0.000000  0.000000  0.000000
                       0.000000  0.000000  0.000000  0.000000  0.000000  0.000000
                       0.000000  0.000000
                       2.000000  2.000000  2.000000  2.000000  2.000000  2.000000
                       2.000000  2.000000  2.000000  2.000000  2.000000  2.000000
                       2.000000  2.000000  2.000000  2.000000  2.000000  2.000000
                       2.000000  2.000000  2.000000  2.000000  2.000000  2.000000
                       2.000000  2.000000  2.000000  2.000000  2.000000  2.000000
                       2.000000  2.000000  2.000000  2.000000  2.000000  2.000000
                       2.000000  2.000000  2.000000  2.000000  2.000000  2.000000
                       2.000000  2.000000  2.000000  2.000000  2.000000  2.000000
                       2.000000  2.000000  2.000000  2.000000  2.000000  2.000000
                       2.000000  2.000000  2.000000  2.000000  2.000000  2.000000
                       2.000000  2.000000  2.000000  2.000000  2.000000  2.000000
                       2.000000  2.000000  2.000000  2.000000  2.000000  2.000000
                       2.000000  2.000000  2.000000  2.000000  2.000000  2.000000
                       2.000000  2.000000  2.000000  2.000000  2.000000  2.000000
                       2.000000  2.000000  2.000000  2.000000  2.000000  2.000000
                       2.000000  2.000000  2.000000  2.000000  0.000000  0.000000
                       0.000000  0.000000  0.000000  0.000000  0.000000  0.000000
                       0.000000  0.000000  0.000000  0.000000  0.000000  0.000000
                       0.000000  0.000000  0.000000  0.000000  0.000000  0.000000
                       0.000000  0.000000  0.000000  0.000000  0.000000  0.000000
                       0.000000  0.000000  0.000000  0.000000  0.000000  0.000000
                       0.000000  0.000000
           occopt           7
        pawecutdg      5.20000000E+01 Hartree
           shiftk      5.00000000E-01  5.00000000E-01  5.00000000E-01
           spinat      0.0000000000E+00  0.0000000000E+00  0.0000000000E+00
                       0.0000000000E+00  0.0000000000E+00  0.0000000000E+00
                       0.0000000000E+00  0.0000000000E+00  0.0000000000E+00
                       0.0000000000E+00  0.0000000000E+00  0.0000000000E+00
                       0.0000000000E+00  0.0000000000E+00 -4.0000000000E+00
                       0.0000000000E+00  0.0000000000E+00  4.0000000000E+00
                       0.0000000000E+00  0.0000000000E+00  4.0000000000E+00
                       0.0000000000E+00  0.0000000000E+00 -4.0000000000E+00
                       0.0000000000E+00  0.0000000000E+00  0.0000000000E+00
                       0.0000000000E+00  0.0000000000E+00  0.0000000000E+00
                       0.0000000000E+00  0.0000000000E+00  0.0000000000E+00
                       0.0000000000E+00  0.0000000000E+00  0.0000000000E+00
                       0.0000000000E+00  0.0000000000E+00  0.0000000000E+00
                       0.0000000000E+00  0.0000000000E+00  0.0000000000E+00
                       0.0000000000E+00  0.0000000000E+00  0.0000000000E+00
                       0.0000000000E+00  0.0000000000E+00  0.0000000000E+00
                       0.0000000000E+00  0.0000000000E+00  0.0000000000E+00
                       0.0000000000E+00  0.0000000000E+00  0.0000000000E+00
                       0.0000000000E+00  0.0000000000E+00  0.0000000000E+00
                       0.0000000000E+00  0.0000000000E+00  0.0000000000E+00
           strten      8.7238287406E-07  8.7238287407E-07  2.9989685911E-06
                       0.0000000000E+00  0.0000000000E+00  0.0000000000E+00
           symafm        1    1    1    1   -1   -1   -1   -1    1    1
                         1    1   -1   -1   -1   -1    1    1    1    1
                        -1   -1   -1   -1    1    1    1    1   -1   -1
                        -1   -1
           symrel      1  0  0   0  1  0   0  0  1       1  0  0   0  1  0   0  0  1
                      -1  0  0   0 -1  0   0  0 -1      -1  0  0   0 -1  0   0  0 -1
                      -1  0  0   0  1  0   0  0 -1      -1  0  0   0  1  0   0  0 -1
                       1  0  0   0 -1  0   0  0  1       1  0  0   0 -1  0   0  0  1
                      -1  0  0   0 -1  0   0  0  1      -1  0  0   0 -1  0   0  0  1
                       1  0  0   0  1  0   0  0 -1       1  0  0   0  1  0   0  0 -1
                       1  0  0   0 -1  0   0  0 -1       1  0  0   0 -1  0   0  0 -1
                      -1  0  0   0  1  0   0  0  1      -1  0  0   0  1  0   0  0  1
                       0  1  0   1  0  0   0  0  1       0  1  0   1  0  0   0  0  1
                       0 -1  0  -1  0  0   0  0 -1       0 -1  0  -1  0  0   0  0 -1
                       0 -1  0   1  0  0   0  0 -1       0 -1  0   1  0  0   0  0 -1
                       0  1  0  -1  0  0   0  0  1       0  1  0  -1  0  0   0  0  1
                       0 -1  0  -1  0  0   0  0  1       0 -1  0  -1  0  0   0  0  1
                       0  1  0   1  0  0   0  0 -1       0  1  0   1  0  0   0  0 -1
                       0  1  0  -1  0  0   0  0 -1       0  1  0  -1  0  0   0  0 -1
                       0 -1  0   1  0  0   0  0  1       0 -1  0   1  0  0   0  0  1
            tnons      0.0000000  0.0000000  0.0000000     0.5000000  0.5000000  0.5000000
                      -0.0000000 -0.0000000  0.5000000     0.5000000  0.5000000  0.0000000
                       0.5000000  0.5000000  0.5000000    -0.0000000 -0.0000000  0.0000000
                       0.5000000  0.5000000  0.0000000     0.0000000 -0.0000000  0.5000000
                      -0.0000000 -0.0000000  0.0000000     0.5000000  0.5000000  0.5000000
                       0.0000000  0.0000000  0.5000000     0.5000000  0.5000000  0.0000000
                       0.5000000  0.5000000  0.5000000     0.0000000 -0.0000000  0.0000000
                       0.5000000  0.5000000  0.0000000    -0.0000000 -0.0000000  0.5000000
                       0.5000000  0.5000000  0.0000000     0.0000000  0.0000000  0.5000000
                       0.5000000  0.5000000  0.5000000     0.0000000 -0.0000000  0.0000000
                       0.0000000 -0.0000000  0.5000000     0.5000000  0.5000000  0.0000000
                       0.0000000  0.0000000  0.0000000     0.5000000  0.5000000  0.5000000
                       0.5000000  0.5000000  0.0000000     0.0000000 -0.0000000  0.5000000
                       0.5000000  0.5000000  0.5000000     0.0000000  0.0000000  0.0000000
                       0.0000000  0.0000000  0.5000000     0.5000000  0.5000000  0.0000000
                       0.0000000 -0.0000000  0.0000000     0.5000000  0.5000000  0.5000000
           tolvrs      1.00000000E-14
           tsmear      1.00000000E-03 Hartree
            typat      1  1  1  1  2  2  2  2  3  3  3  3  3  3  3  3  3  3  3  3
            upawu      0.00000000E+00  1.46997302E-01  0.00000000E+00 Hartree
        usedmatpu          25
          usepawu           1
           useylm           1
              wtk        0.12500    0.25000    0.25000    0.12500    0.12500    0.12500
           xangst      2.0339865700E-20 -1.9352939087E-20 -2.5194539416E-32
                       2.8804964065E+00  2.8804964065E+00  7.3973205348E-32
                       2.0339865700E-20 -1.9352939087E-20  4.0100614061E+00
                       2.8804964065E+00  2.8804964065E+00  4.0100614061E+00
                       2.8804964065E+00 -1.9352939087E-20  2.0050307030E+00
                       2.0339865700E-20  2.8804964065E+00  2.0050307030E+00
                       2.8804964065E+00 -1.9352939087E-20  6.0150921091E+00
                       2.0339865700E-20  2.8804964065E+00  6.0150921091E+00
                       2.8804964065E+00 -1.9352939087E-20  2.4389332966E-32
                       2.0339865700E-20  2.8804964065E+00  2.4389332966E-32
                       2.8804964065E+00 -1.9352939087E-20  4.0100614061E+00
                       2.0339865700E-20  2.8804964065E+00  4.0100614061E+00
                       1.4737775959E+00  1.4067188106E+00  2.0050307030E+00
                       4.3542740024E+00  1.4737775959E+00  2.0050307030E+00
                       4.2872152170E+00  4.3542740024E+00  2.0050307030E+00
                       1.4067188106E+00  4.2872152170E+00  2.0050307030E+00
                       1.4067188106E+00  1.4737775959E+00  6.0150921091E+00
                       4.2872152170E+00  1.4067188106E+00  6.0150921091E+00
                       4.3542740024E+00  4.2872152170E+00  6.0150921091E+00
                       1.4737775959E+00  4.3542740024E+00  6.0150921091E+00
            xcart      3.8436775753E-20 -3.6571754740E-20 -4.7610779540E-32
                       5.4433493350E+00  5.4433493350E+00  1.3978909928E-31
                       3.8436775753E-20 -3.6571754740E-20  7.5779178335E+00
                       5.4433493350E+00  5.4433493350E+00  7.5779178335E+00
                       5.4433493350E+00 -3.6571754740E-20  3.7889589167E+00
                       3.8436775753E-20  5.4433493350E+00  3.7889589167E+00
                       5.4433493350E+00 -3.6571754741E-20  1.1366876750E+01
                       3.8436775753E-20  5.4433493350E+00  1.1366876750E+01
                       5.4433493350E+00 -3.6571754740E-20  4.6089159869E-32
                       3.8436775753E-20  5.4433493350E+00  4.6089159869E-32
                       5.4433493350E+00 -3.6571754740E-20  7.5779178335E+00
                       3.8436775753E-20  5.4433493350E+00  7.5779178335E+00
                       2.7850360371E+00  2.6583132979E+00  3.7889589167E+00
                       8.2283853721E+00  2.7850360371E+00  3.7889589167E+00
                       8.1016626329E+00  8.2283853721E+00  3.7889589167E+00
                       2.6583132979E+00  8.1016626329E+00  3.7889589167E+00
                       2.6583132979E+00  2.7850360371E+00  1.1366876750E+01
                       8.1016626329E+00  2.6583132979E+00  1.1366876750E+01
                       8.2283853721E+00  8.1016626329E+00  1.1366876750E+01
                       2.7850360371E+00  8.2283853721E+00  1.1366876750E+01
             xred      3.5306181349E-21 -3.3593062368E-21 -3.1414156623E-33
                       5.0000000000E-01  5.0000000000E-01  9.2234504484E-33
                       3.5306181349E-21 -3.3593062368E-21  5.0000000000E-01
                       5.0000000000E-01  5.0000000000E-01  5.0000000000E-01
                       5.0000000000E-01 -3.3593062368E-21  2.5000000000E-01
                       3.5306181349E-21  5.0000000000E-01  2.5000000000E-01
                       5.0000000000E-01 -3.3593062369E-21  7.5000000000E-01
                       3.5306181349E-21  5.0000000000E-01  7.5000000000E-01
                       5.0000000000E-01 -3.3593062368E-21  3.0410173930E-33
                       3.5306181349E-21  5.0000000000E-01  3.0410173930E-33
                       5.0000000000E-01 -3.3593062368E-21  5.0000000000E-01
                       3.5306181349E-21  5.0000000000E-01  5.0000000000E-01
                       2.5582007195E-01  2.4417992805E-01  2.5000000000E-01
                       7.5582007195E-01  2.5582007195E-01  2.5000000000E-01
                       7.4417992805E-01  7.5582007195E-01  2.5000000000E-01
                       2.4417992805E-01  7.4417992805E-01  2.5000000000E-01
                       2.4417992805E-01  2.5582007195E-01  7.5000000000E-01
                       7.4417992805E-01  2.4417992805E-01  7.5000000000E-01
                       7.5582007195E-01  7.4417992805E-01  7.5000000000E-01
                       2.5582007195E-01  7.5582007195E-01  7.5000000000E-01
            znucl       19.00000   27.00000    9.00000
 
================================================================================


- Timing analysis has been suppressed with timopt=0



================================================================================

 Suggested references for the acknowledgment of ABINIT usage.

 The users of ABINIT have little formal obligations with respect to the ABINIT group
 (those specified in the GNU General Public License, http://www.gnu.org/copyleft/gpl.txt).
 However, it is common practice in the scientific literature,
 to acknowledge the efforts of people that have made the research possible.
 In this spirit, please find below suggested citations of work written by ABINIT developers,
 corresponding to implementations inside of ABINIT that you have used in the present run.
 Note also that it will be of great value to readers of publications presenting these results,
 to read papers enabling them to understand the theoretical formalism and details
 of the ABINIT implementation.
 For information on why they are suggested, see also http://www.abinit.org/about/?text=acknowledgments.
-
- [1] Gamma and beta cerium: LDA+U calculations of ground-state parameters.
- B. Amadon, F. Jollet and M. Torrent, Phys. Rev. B 77, 155104 (2008).
- Comment : LDA+U calculations, usepawu/=0. Strong suggestion to cite this paper.
-
- [2] Implementation of the Projector Augmented-Wave Method in the ABINIT code.
- M. Torrent, F. Jollet, F. Bottin, G. Zerah, and X. Gonze Comput. Mat. Science 42, 337, (2008).
- Comment : PAW calculations. Strong suggestion to cite this paper.
-
- [3] Libxc: A library of exchange and correlation functionals for density functional theory.
- M.A.L. Marques, M.J.T. Oliveira, T. Burnus, Computer Physics Communications 183, 2227 (2012).
- Comment : to be cited when LibXC is used (negative value of ixc)
- Strong suggestion to cite this paper.
-
- [4] Recent developments in the ABINIT software package.
- Computer Phys. Comm. 205, 106 (2016).
- X.Gonze, F.Jollet, F.Abreu Araujo, D.Adams, B.Amadon, T.Applencourt,
- C.Audouze, J.-M.Beuken, J.Bieder, A.Bokhanchuk, E.Bousquet, F.Bruneval
- D.Caliste, M.Cote, F.Dahm, F.Da Pieve, M.Delaveau, M.Di Gennaro,
- B.Dorado, C.Espejo, G.Geneste, L.Genovese, A.Gerossier, M.Giantomassi,
- Y.Gillet, D.R.Hamann, L.He, G.Jomard, J.Laflamme Janssen, S.Le Roux,
- A.Levitt, A.Lherbier, F.Liu, I.Lukacevic, A.Martin, C.Martins,
- M.J.T.Oliveira, S.Ponce, Y.Pouillon, T.Rangel, G.-M.Rignanese,
- A.H.Romero, B.Rousseau, O.Rubel, A.A.Shukri, M.Stankovski, M.Torrent,
- M.J.Van Setten, B.Van Troeye, M.J.Verstraete, D.Waroquier, J.Wiktor,
- B.Xue, A.Zhou, J.W.Zwanziger.
- Comment : the fourth generic paper describing the ABINIT project.
- Note that a version of this paper, that is not formatted for Computer Phys. Comm. 
- is available at http://www.abinit.org/about/ABINIT16.pdf .
- The licence allows the authors to put it on the Web.
-
- [5] ABINIT : First-principles approach of materials and nanosystem properties.
- Computer Phys. Comm. 180, 2582-2615 (2009).
- X. Gonze, B. Amadon, P.-M. Anglade, J.-M. Beuken, F. Bottin, P. Boulanger, F. Bruneval,
- D. Caliste, R. Caracas, M. Cote, T. Deutsch, L. Genovese, Ph. Ghosez, M. Giantomassi
- S. Goedecker, D.R. Hamann, P. Hermet, F. Jollet, G. Jomard, S. Leroux, M. Mancini, S. Mazevet,
- M.J.T. Oliveira, G. Onida, Y. Pouillon, T. Rangel, G.-M. Rignanese, D. Sangalli, R. Shaltaf,
- M. Torrent, M.J. Verstraete, G. Zerah, J.W. Zwanziger
- Comment : the third generic paper describing the ABINIT project.
- Note that a version of this paper, that is not formatted for Computer Phys. Comm. 
- is available at http://www.abinit.org/about/ABINIT_CPC_v10.pdf .
- The licence allows the authors to put it on the Web.
-
- [6] A brief introduction to the ABINIT software package.
- Z. Kristallogr. 220, 558-562 (2005).
- X. Gonze, G.-M. Rignanese, M. Verstraete, J.-M. Beuken, Y. Pouillon, R. Caracas, F. Jollet,
- M. Torrent, G. Zerah, M. Mikami, Ph. Ghosez, M. Veithen, J.-Y. Raty, V. Olevano, F. Bruneval,
- L. Reining, R. Godby, G. Onida, D.R. Hamann, and D.C. Allan.
- Comment : the second generic paper describing the ABINIT project. Note that this paper
- should be cited especially if you are using the GW part of ABINIT, as several authors
- of this part are not in the list of authors of the first or third paper.
- The .pdf of the latter paper is available at http://www.abinit.org/about/zfk_0505-06_558-562.pdf.
- Note that it should not redistributed (Copyright by Oldenburg Wissenshaftverlag,
- the licence allows the authors to put it on the Web).
-
- Proc.   0 individual time (sec): cpu=        738.1  wall=        738.1
 
================================================================================
 
 Calculation completed.
.Delivered   1 WARNINGs and   0 COMMENTs to log file.
+Overall time at end (sec) : cpu=       4429.0  wall=       4428.4
